HEADER
"PSFversion" "1.00"
"simulator" "spectre"
"version" "23.1.0.063"
"date" "12:30:29 PM, Fri Feb 7, 2025"
"design" ""
"analysis type" "ac"
"analysis name" "outac1"
"analysis description" "AC Analysis `outac1': freq = (100 mHz -> 1 GHz)"
"xVecSorted" "ascending"
"tolerance.relative" 0.00100000
"start" 0.100000
"stop" 1.00000e+09
"operating point producer" "outac1"
TYPE
"sweep" FLOAT DOUBLE PROP(
"key" "sweep"
)
"V" COMPLEX DOUBLE PROP(
"units" "V"
"key" "node"
"tolerance" 1.00000e-06
)
"I" COMPLEX DOUBLE PROP(
"units" "A"
"key" "branch"
"tolerance" 1.00000e-12
)
"MMF" COMPLEX DOUBLE PROP(
"units" "A*turn"
"key" "node"
"tolerance" 1.00000e-12
)
"Wb" COMPLEX DOUBLE PROP(
"units" "Wb"
"key" "node"
"tolerance" 1.00000e-09
)
"Temp" COMPLEX DOUBLE PROP(
"units" "C"
"key" "node"
"tolerance" 0.000100000
)
"Pwr" COMPLEX DOUBLE PROP(
"units" "W"
"key" "node"
"tolerance" 1.00000e-09
)
"U" COMPLEX DOUBLE PROP(
"units" ""
"key" "node"
"tolerance" 1.00000e-06
)
"V/Sec" COMPLEX DOUBLE PROP(
"units" "V/s"
"key" "node"
"tolerance" 0.000100000
)
"I/Sec" COMPLEX DOUBLE PROP(
"units" "A/s"
"key" "node"
"tolerance" 1.00000e-06
)
"1/Sec" COMPLEX DOUBLE PROP(
"units" "1/s"
"key" "node"
"tolerance" 0.000100000
)
"HOD" COMPLEX DOUBLE PROP(
"units" ""
"key" "node"
"tolerance" 0.0100000
)
"Q" COMPLEX DOUBLE PROP(
"units" "Coul"
"key" "node"
"tolerance" 1.00000e-15
)
SWEEP
"freq" "sweep" PROP(
"sweep_direction" 0
"units" "Hz"
"plot" 0
"grid" 3
)
TRACE
"Xopamp:1" "I"
"Xopamp:2" "I"
"Xopamp:3" "I"
"Xopamp:4" "I"
"Xopamp:5" "I"
"Xopamp:6" "I"
"dd" "V"
"net7" "V"
"inn" "V"
"inp" "V"
"out" "V"
"Xopamp.net1" "V"
"Xopamp.net3" "V"
"Xopamp.net2" "V"
"Xopamp.net8" "V"
"vdd:p" "I"
"vin:p" "I"
"vip:p" "I"
VALUE
"freq" 1.000000000000000e-01
"Xopamp:1" (6.449044659512733e-02 -9.636052349969905e-05)
"Xopamp:2" (-6.449044646639891e-02 9.644660044014238e-05)
"Xopamp:3" (3.531472392825095e-16 2.391866088982514e-13)
"Xopamp:4" (3.277017208869596e-18 -1.142899579671701e-15)
"Xopamp:5" (-5.229326303419767e-25 -6.365730814932753e-22)
"Xopamp:6" (-1.335264200220122e-10 -8.607715344232989e-08)
"dd" (0.000000000000000e+00 0.000000000000000e+00)
"net7" (9.325775235009936e-09 6.235474862641868e-06)
"inn" (-5.000000000000000e-01 0.000000000000000e+00)
"inp" (5.000000000000000e-01 0.000000000000000e+00)
"out" (6.849804220858360e+04 -1.024454909337123e+02)
"Xopamp.net1" (3.100767029450674e-01 1.171383859733174e-03)
"Xopamp.net3" (-3.586280341268491e-01 5.309299227743628e-04)
"Xopamp.net2" (-4.324211907758796e+02 6.459420113369991e-01)
"Xopamp.net8" (-4.324211853855014e+02 6.495460769097644e-01)
"vdd:p" (-6.449044659512734e-02 9.636052349969907e-05)
"vin:p" (-3.277017208869596e-18 1.142899579671701e-15)
"vip:p" (-3.531472392825095e-16 -2.391866088982514e-13)
"freq" 1.258925411794167e-01
"Xopamp:1" (6.449036230052747e-02 -1.213105530098802e-04)
"Xopamp:2" (-6.449036209650467e-02 1.214189173158025e-04)
"Xopamp:3" (5.596999231872058e-16 3.011177111863434e-13)
"Xopamp:4" (5.193715470670178e-18 -1.438828932916871e-15)
"Xopamp:5" (-4.586316542814107e-25 -1.097894215251569e-21)
"Xopamp:6" (-2.081964848694367e-10 -1.083646056067151e-07)
"dd" (0.000000000000000e+00 0.000000000000000e+00)
"net7" (1.478033834641099e-08 7.849987488826970e-06)
"inn" (-5.000000000000000e-01 0.000000000000000e+00)
"inp" (5.000000000000000e-01 0.000000000000000e+00)
"out" (6.849795259095909e+04 -1.289710631198156e+02)
"Xopamp.net1" (3.100777276544019e-01 1.474682978565983e-03)
"Xopamp.net3" (-3.586275696779770e-01 6.684002971552063e-04)
"Xopamp.net2" (-4.324206257164504e+02 8.131917486713552e-01)
"Xopamp.net8" (-4.324206171732878e+02 8.177289924703274e-01)
"vdd:p" (-6.449036230052746e-02 1.213105530098802e-04)
"vin:p" (-5.193715470670178e-18 1.438828932916870e-15)
"vip:p" (-5.596999231872058e-16 -3.011177111863435e-13)
"freq" 1.584893192461114e-01
"Xopamp:1" (6.449022870304182e-02 -1.527206212206071e-04)
"Xopamp:2" (-6.449022837968593e-02 1.528570435161944e-04)
"Xopamp:3" (8.870627586621418e-16 3.790839625658968e-13)
"Xopamp:4" (8.231467224218740e-18 -1.811385507629952e-15)
"Xopamp:5" (-1.564954366321214e-25 -2.688778515830100e-22)
"Xopamp:6" (-3.360152295214759e-10 -1.364226688916996e-07)
"dd" (0.000000000000000e+00 0.000000000000000e+00)
"net7" (2.342520905285678e-08 9.882528239964340e-06)
"inn" (-5.000000000000000e-01 0.000000000000000e+00)
"inp" (5.000000000000000e-01 0.000000000000000e+00)
"out" (6.849781055707649e+04 -1.623646120674953e+02)
"Xopamp.net1" (3.100793517037583e-01 1.856512026375735e-03)
"Xopamp.net3" (-3.586268335786109e-01 8.414643744737967e-04)
"Xopamp.net2" (-4.324197301606367e+02 1.023745634219069e+00)
"Xopamp.net8" (-4.324197166206643e+02 1.029457673892556e+00)
"vdd:p" (-6.449022870304183e-02 1.527206212206071e-04)
"vin:p" (-8.231467224218740e-18 1.811385507629952e-15)
"vip:p" (-8.870627586621418e-16 -3.790839625658968e-13)
"freq" 1.995262314968880e-01
"Xopamp:1" (6.449001696643118e-02 -1.922632390986729e-04)
"Xopamp:2" (-6.449001645394609e-02 1.924349840289267e-04)
"Xopamp:3" (1.405895107104377e-15 4.772368853867459e-13)
"Xopamp:4" (1.304595349290745e-17 -2.280413613431538e-15)
"Xopamp:5" (-1.278959610347452e-24 -2.085380203161680e-22)
"Xopamp:6" (-5.145738469616796e-10 -1.717453718420268e-07)
"dd" (0.000000000000000e+00 0.000000000000000e+00)
"net7" (3.712633234652106e-08 1.244132504739588e-05)
"inn" (-5.000000000000000e-01 0.000000000000000e+00)
"inp" (5.000000000000000e-01 0.000000000000000e+00)
"out" (6.849758544974937e+04 -2.044042643462566e+02)
"Xopamp.net1" (3.100819256347311e-01 2.337202486223057e-03)
"Xopamp.net3" (-3.586256669459896e-01 1.059337402698500e-03)
"Xopamp.net2" (-4.324183108079316e+02 1.288815158522523e+00)
"Xopamp.net8" (-4.324182893485922e+02 1.296006166787807e+00)
"vdd:p" (-6.449001696643118e-02 1.922632390986728e-04)
"vin:p" (-1.304595349290745e-17 2.280413613431538e-15)
"vip:p" (-1.405895107104377e-15 -4.772368853867459e-13)
"freq" 2.511886431509581e-01
"Xopamp:1" (6.448968138936914e-02 -2.420438167375630e-04)
"Xopamp:2" (-6.448968057713698e-02 2.422600296684974e-04)
"Xopamp:3" (2.228181978780250e-15 6.008025532382526e-13)
"Xopamp:4" (2.067633518455168e-17 -2.870899313679986e-15)
"Xopamp:5" (-3.423734593059527e-24 -9.199802382331798e-22)
"Xopamp:6" (-8.218759781134062e-10 -2.162134908316089e-07)
"dd" (0.000000000000000e+00 0.000000000000000e+00)
"net7" (5.884096491602534e-08 1.566261867962171e-05)
"inn" (-5.000000000000000e-01 0.000000000000000e+00)
"inp" (5.000000000000000e-01 0.000000000000000e+00)
"out" (6.849722868170986e+04 -2.573283823353460e+02)
"Xopamp.net1" (3.100860050057528e-01 2.942348276769775e-03)
"Xopamp.net3" (-3.586238179735974e-01 1.333619829582085e-03)
"Xopamp.net2" (-4.324160613046014e+02 1.622513703089908e+00)
"Xopamp.net8" (-4.324160272940176e+02 1.631566598978169e+00)
"vdd:p" (-6.448968138936913e-02 2.420438167375630e-04)
"vin:p" (-2.067633518455168e-17 2.870899313679986e-15)
"vip:p" (-2.228181978780250e-15 -6.008025532382525e-13)
"freq" 3.162277660168380e-01
"Xopamp:1" (6.448914954272864e-02 -3.047125962300903e-04)
"Xopamp:2" (-6.448914825543582e-02 3.049847899363492e-04)
"Xopamp:3" (3.531401297714828e-15 7.563594380199511e-13)
"Xopamp:4" (3.276951236376282e-17 -3.614305296771380e-15)
"Xopamp:5" (-3.915281223295958e-24 1.578437436503572e-21)
"Xopamp:6" (-1.291632840679057e-09 -2.721944140330578e-07)
"dd" (0.000000000000000e+00 0.000000000000000e+00)
"net7" (9.325587489808900e-08 1.971790590183208e-05)
"inn" (-5.000000000000000e-01 0.000000000000000e+00)
"inp" (5.000000000000000e-01 0.000000000000000e+00)
"out" (6.849666325008561e+04 -3.239545654254177e+02)
"Xopamp.net1" (3.100924702860678e-01 3.704166437704151e-03)
"Xopamp.net3" (-3.586208875892939e-01 1.678914033551487e-03)
"Xopamp.net2" (-4.324124961300878e+02 2.042606869910471e+00)
"Xopamp.net8" (-4.324124422273901e+02 2.054003696512540e+00)
"vdd:p" (-6.448914954272862e-02 3.047125962300903e-04)
"vin:p" (-3.276951236376282e-17 3.614305296771380e-15)
"vip:p" (-3.531401297714828e-15 -7.563594380199512e-13)
"freq" 3.981071705534974e-01
"Xopamp:1" (6.448830664059496e-02 -3.836054118552824e-04)
"Xopamp:2" (-6.448830460039780e-02 3.839480789460572e-04)
"Xopamp:3" (5.596820651599307e-15 9.521878189928619e-13)
"Xopamp:4" (5.193549757644269e-17 -4.550254902830045e-15)
"Xopamp:5" (-7.059268671772947e-24 -2.258094995456160e-21)
"Xopamp:6" (-2.052922272580395e-09 -3.426680187408970e-07)
"dd" (0.000000000000000e+00 0.000000000000000e+00)
"net7" (1.477986675857491e-07 2.482304804689026e-05)
"inn" (-5.000000000000000e-01 0.000000000000000e+00)
"inp" (5.000000000000000e-01 0.000000000000000e+00)
"out" (6.849576712047558e+04 -4.078292989196433e+02)
"Xopamp.net1" (3.101027168461795e-01 4.663208247572726e-03)
"Xopamp.net3" (-3.586162433422614e-01 2.113599888144206e-03)
"Xopamp.net2" (-4.324068458298402e+02 2.571456051652532e+00)
"Xopamp.net8" (-4.324067604009392e+02 2.585803618561446e+00)
"vdd:p" (-6.448830664059498e-02 3.836054118552825e-04)
"vin:p" (-5.193549757644269e-17 4.550254902830045e-15)
"vip:p" (-5.596820651599307e-15 -9.521878189928619e-13)
"freq" 5.011872336272725e-01
"Xopamp:1" (6.448697077591896e-02 -4.829205875375704e-04)
"Xopamp:2" (-6.448696754248917e-02 4.833519709015435e-04)
"Xopamp:3" (8.870179023488641e-15 1.198708905263131e-12)
"Xopamp:4" (8.231050981411525e-17 -5.728659216439463e-15)
"Xopamp:5" (-1.844175865457361e-23 4.570644246078453e-22)
"Xopamp:6" (-3.243890833830874e-09 -4.313844759986917e-07)
"dd" (0.000000000000000e+00 0.000000000000000e+00)
"net7" (2.342402450478841e-07 3.124971802435839e-05)
"inn" (-5.000000000000000e-01 0.000000000000000e+00)
"inp" (5.000000000000000e-01 0.000000000000000e+00)
"out" (6.849434689878754e+04 -5.134160222010242e+02)
"Xopamp.net1" (3.101189560003552e-01 5.870509635785839e-03)
"Xopamp.net3" (-3.586088829556761e-01 2.660809436603515e-03)
"Xopamp.net2" (-4.323978910102852e+02 3.237204244031952e+00)
"Xopamp.net8" (-4.323977556174090e+02 3.255266386084514e+00)
"vdd:p" (-6.448697077591892e-02 4.829205875375704e-04)
"vin:p" (-8.231050981411524e-17 5.728659216439464e-15)
"vip:p" (-8.870179023488641e-15 -1.198708905263131e-12)
"freq" 6.309573444801935e-01
"Xopamp:1" (6.448485368656127e-02 -6.079410209438615e-04)
"Xopamp:2" (-6.448484856208662e-02 6.084840825775470e-04)
"Xopamp:3" (1.405782437212620e-14 1.509036147315899e-12)
"Xopamp:4" (1.304490797604244e-16 -7.212408938267988e-15)
"Xopamp:5" (-3.156595330072279e-23 -3.044165129426624e-22)
"Xopamp:6" (-5.124297062763033e-09 -5.430631880537286e-07)
"dd" (0.000000000000000e+00 0.000000000000000e+00)
"net7" (3.712335700385707e-07 3.933977135127045e-05)
"inn" (-5.000000000000000e-01 0.000000000000000e+00)
"inp" (5.000000000000000e-01 0.000000000000000e+00)
"out" (6.849209611974140e+04 -6.463312369802094e+02)
"Xopamp.net1" (3.101446919458446e-01 7.390290895254290e-03)
"Xopamp.net3" (-3.585972181543024e-01 3.349650537080941e-03)
"Xopamp.net2" (-4.323836993383891e+02 4.075264761763012e+00)
"Xopamp.net8" (-4.323834847621927e+02 4.098002904145884e+00)
"vdd:p" (-6.448485368656129e-02 6.079410209438615e-04)
"vin:p" (-1.304490797604244e-16 7.212408938267988e-15)
"vip:p" (-1.405782437212620e-14 -1.509036147315899e-12)
"freq" 7.943282347242818e-01
"Xopamp:1" (6.448149861105268e-02 -7.653125410049485e-04)
"Xopamp:2" (-6.448149048972841e-02 7.659961794924451e-04)
"Xopamp:3" (2.227898981021147e-14 1.899666283673718e-12)
"Xopamp:4" (2.067370911537484e-16 -9.080791213802326e-15)
"Xopamp:5" (2.642304800860603e-23 5.249923543646259e-22)
"Xopamp:6" (-8.132418992824737e-09 -6.836403517279495e-07)
"dd" (0.000000000000000e+00 0.000000000000000e+00)
"net7" (5.883349162131147e-07 4.952325863017838e-05)
"inn" (-5.000000000000000e-01 0.000000000000000e+00)
"inp" (5.000000000000000e-01 0.000000000000000e+00)
"out" (6.848852917835287e+04 -8.136404425179092e+02)
"Xopamp.net1" (3.101854772060845e-01 9.303340469528415e-03)
"Xopamp.net3" (-3.585787322603270e-01 4.216740564732732e-03)
"Xopamp.net2" (-4.323612089646914e+02 5.130187177127010e+00)
"Xopamp.net8" (-4.323608689020498e+02 5.158811311579552e+00)
"vdd:p" (-6.448149861105267e-02 7.653125410049485e-04)
"vin:p" (-2.067370911537484e-16 9.080791213802326e-15)
"vip:p" (-2.227898981021147e-14 -1.899666283673719e-12)
"freq" 1.000000000000000e+00
"Xopamp:1" (6.447618189049209e-02 -9.633918871145315e-04)
"Xopamp:2" (-6.447616902012059e-02 9.642524659505199e-04)
"Xopamp:3" (3.530690504020906e-14 2.391343308408327e-12)
"Xopamp:4" (3.276291657510141e-16 -1.143384692330001e-14)
"Xopamp:5" (-5.218781359671029e-23 -6.505179282676686e-21)
"Xopamp:6" (-1.286055882035701e-08 -8.605807871252190e-07)
"dd" (0.000000000000000e+00 0.000000000000000e+00)
"net7" (9.323710453477498e-07 6.234094324041861e-05)
"inn" (-5.000000000000000e-01 0.000000000000000e+00)
"inp" (5.000000000000000e-01 0.000000000000000e+00)
"out" (6.848287671820103e+04 -1.024228088989817e+03)
"Xopamp.net1" (3.102501087862467e-01 1.171124507927665e-02)
"Xopamp.net3" (-3.585494380365974e-01 5.308123717289419e-03)
"Xopamp.net2" (-4.323255689226279e+02 6.457989959684391e+00)
"Xopamp.net8" (-4.323250300041447e+02 6.494022635780199e+00)
"vdd:p" (-6.447618189049210e-02 9.633918871145314e-04)
"vin:p" (-3.276291657510142e-16 1.143384692330001e-14)
"vip:p" (-3.530690504020907e-14 -2.391343308408327e-12)
"freq" 1.258925411794168e+00
"Xopamp:1" (6.446775725373328e-02 -1.212679901341066e-03)
"Xopamp:2" (-6.446773685823477e-02 1.213763164216482e-03)
"Xopamp:3" (5.595035475436331e-14 3.010134165274062e-12)
"Xopamp:4" (5.191893208803855e-16 -1.439796732061325e-14)
"Xopamp:5" (4.528557375942314e-23 -6.119256568402228e-21)
"Xopamp:6" (-2.039710281624843e-08 -1.083265853129711e-06)
"dd" (0.000000000000000e+00 0.000000000000000e+00)
"net7" (1.477515253482121e-06 7.847233316052643e-05)
"inn" (-5.000000000000000e-01 0.000000000000000e+00)
"inp" (5.000000000000000e-01 0.000000000000000e+00)
"out" (6.847392008355568e+04 -1.289258124889961e+03)
"Xopamp.net1" (3.103525210871773e-01 1.474165572039501e-02)
"Xopamp.net3" (-3.585030197245493e-01 6.681657829671285e-03)
"Xopamp.net2" (-4.322690953116806e+02 8.129064331905745e+00)
"Xopamp.net8" (-4.322682412951565e+02 8.174420850539951e+00)
"vdd:p" (-6.446775725373328e-02 1.212679901341066e-03)
"vin:p" (-5.191893208803855e-16 1.439796732061325e-14)
"vip:p" (-5.595035475436330e-14 -3.010134165274062e-12)
"freq" 1.584893192461114e+00
"Xopamp:1" (6.445440961741178e-02 -1.526357148947029e-03)
"Xopamp:2" (-6.445437729942187e-02 1.527720613495261e-03)
"Xopamp:3" (8.865695885985580e-14 3.788759109213398e-12)
"Xopamp:4" (8.226890867476475e-16 -1.813316116595514e-14)
"Xopamp:5" (1.298635862908410e-22 3.338926125599857e-21)
"Xopamp:6" (-3.232331859155702e-08 -1.363467877810062e-06)
"dd" (0.000000000000000e+00 0.000000000000000e+00)
"net7" (2.341218560969988e-06 9.877034093083443e-05)
"inn" (-5.000000000000000e-01 0.000000000000000e+00)
"inp" (5.000000000000000e-01 0.000000000000000e+00)
"out" (6.845972957239965e+04 -1.622743440877618e+03)
"Xopamp.net1" (3.105147787828865e-01 1.855479880723827e-02)
"Xopamp.net3" (-3.584294765243361e-01 8.409965550955198e-03)
"Xopamp.net2" (-4.321796209233754e+02 1.023176474152782e+01)
"Xopamp.net8" (-4.321782676789111e+02 1.028885338162118e+01)
"vdd:p" (-6.445440961741179e-02 1.526357148947028e-03)
"vin:p" (-8.226890867476475e-16 1.813316116595514e-14)
"vip:p" (-8.865695885985580e-14 -3.788759109213398e-12)
"freq" 1.995262314968881e+00
"Xopamp:1" (6.443326636837861e-02 -1.920938848892892e-03)
"Xopamp:2" (-6.443321516463256e-02 1.922654785475089e-03)
"Xopamp:3" (1.404656730742666e-13 4.768219054497424e-12)
"Xopamp:4" (1.303446201678014e-15 -2.284264407250606e-14)
"Xopamp:5" (-2.979165860629354e-22 -7.752274982963208e-21)
"Xopamp:6" (-5.120882360868658e-08 -1.715941281129904e-06)
"dd" (0.000000000000000e+00 0.000000000000000e+00)
"net7" (3.709362978538752e-06 1.243036641867956e-04)
"inn" (-5.000000000000000e-01 0.000000000000000e+00)
"inp" (5.000000000000000e-01 0.000000000000000e+00)
"out" (6.843725117217559e+04 -2.042242157788783e+03)
"Xopamp.net1" (3.107718021827832e-01 2.335143767876856e-02)
"Xopamp.net3" (-3.583129808273187e-01 1.058404289881538e-02)
"Xopamp.net2" (-4.320378895165208e+02 1.287679911507507e+01)
"Xopamp.net8" (-4.320357454728165e+02 1.294864585591140e+01)
"vdd:p" (-6.443326636837859e-02 1.920938848892892e-03)
"vin:p" (-1.303446201678014e-15 2.284264407250606e-14)
"vip:p" (-1.404656730742666e-13 -4.768219054497424e-12)
"freq" 2.511886431509582e+00
"Xopamp:1" (6.439978500381718e-02 -2.417060881811977e-03)
"Xopamp:2" (-6.439970389355656e-02 2.419219994433046e-03)
"Xopamp:3" (2.225072952153994e-13 5.999749943865723e-12)
"Xopamp:4" (2.064748506567068e-15 -2.878578621103799e-14)
"Xopamp:5" (-1.575833651157778e-22 1.398231548485664e-20)
"Xopamp:6" (-8.111553457041515e-08 -2.159117998427131e-06)
"dd" (0.000000000000000e+00 0.000000000000000e+00)
"net7" (5.875886295053681e-06 1.564076482745248e-04)
"inn" (-5.000000000000000e-01 0.000000000000000e+00)
"inp" (5.000000000000000e-01 0.000000000000000e+00)
"out" (6.840165553067898e+04 -2.569693269392169e+03)
"Xopamp.net1" (3.111788112540588e-01 2.938242751565791e-02)
"Xopamp.net3" (-3.581285042175247e-01 1.331759002822918e-02)
"Xopamp.net2" (-4.318134509311714e+02 1.620249777457975e+01)
"Xopamp.net8" (-4.318100546183567e+02 1.629290041631721e+01)
"vdd:p" (-6.439978500381717e-02 2.417060881811978e-03)
"vin:p" (-2.064748506567067e-15 2.878578621103798e-14)
"vip:p" (-2.225072952153994e-13 -5.999749943865723e-12)
"freq" 3.162277660168382e+00
"Xopamp:1" (6.434679190284928e-02 -3.040392997679963e-03)
"Xopamp:2" (-6.434666345763192e-02 3.043108920665554e-03)
"Xopamp:3" (3.523598272860214e-13 7.547096147032391e-12)
"Xopamp:4" (3.269710442978572e-15 -3.629614782517654e-14)
"Xopamp:5" (-4.808263810649096e-22 -2.300211743354406e-21)
"Xopamp:6" (-1.284705071359054e-07 -2.715929733918182e-06)
"dd" (0.000000000000000e+00 0.000000000000000e+00)
"net7" (9.304981565372327e-06 1.967433800959633e-04)
"inn" (-5.000000000000000e-01 0.000000000000000e+00)
"inp" (5.000000000000000e-01 0.000000000000000e+00)
"out" (6.834531602813618e+04 -3.232387517242867e+03)
"Xopamp.net1" (3.118230105897634e-01 3.695981652785071e-02)
"Xopamp.net3" (-3.578365212670961e-01 1.675204284849745e-02)
"Xopamp.net2" (-4.314582176015177e+02 2.038093502326665e+01)
"Xopamp.net8" (-4.314528392421445e+02 2.049465146312303e+01)
"vdd:p" (-6.434679190284928e-02 3.040392997679963e-03)
"vin:p" (-3.269710442978572e-15 3.629614782517653e-14)
"vip:p" (-3.523598272860214e-13 -7.547096147032391e-12)
"freq" 3.981071705534976e+00
"Xopamp:1" (6.426298208602640e-02 -3.822637777978164e-03)
"Xopamp:2" (-6.426277877947825e-02 3.826052465025933e-03)
"Xopamp:3" (5.577246149135665e-13 9.489003234019623e-12)
"Xopamp:4" (5.175385657075187e-15 -4.580761119089685e-14)
"Xopamp:5" (-2.471178976238409e-23 -6.393395688915873e-21)
"Xopamp:6" (-2.033006465562234e-07 -3.414696040770748e-06)
"dd" (0.000000000000000e+00 0.000000000000000e+00)
"net7" (1.472817517407215e-05 2.473623314242203e-04)
"inn" (-5.000000000000000e-01 0.000000000000000e+00)
"inp" (5.000000000000000e-01 0.000000000000000e+00)
"out" (6.825621379969952e+04 -4.064029435259860e+03)
"Xopamp.net1" (3.128418267627505e-01 4.646898959140820e-02)
"Xopamp.net3" (-3.573747434668941e-01 2.106207713250821e-02)
"Xopamp.net2" (-4.308964078613081e+02 2.562462557693772e+01)
"Xopamp.net8" (-4.308878948493863e+02 2.576759944841226e+01)
"vdd:p" (-6.426298208602642e-02 3.822637777978165e-03)
"vin:p" (-5.175385657075188e-15 4.580761119089685e-14)
"vip:p" (-5.577246149135665e-13 -9.489003234019623e-12)
"freq" 5.011872336272727e+00
"Xopamp:1" (6.413059919911775e-02 -4.802492508780251e-03)
"Xopamp:2" (-6.413027762925128e-02 4.806782480141169e-03)
"Xopamp:3" (8.821112500009084e-13 1.192163150620756e-11)
"Xopamp:4" (8.185519848821494e-15 -5.789400349372273e-14)
"Xopamp:5" (1.280568782681708e-21 -1.019784069552864e-20)
"Xopamp:6" (-3.215973872254173e-07 -4.289982184427467e-06)
"dd" (0.000000000000000e+00 0.000000000000000e+00)
"net7" (2.329445153493951e-05 3.107686027761610e-04)
"inn" (-5.000000000000000e-01 0.000000000000000e+00)
"inp" (5.000000000000000e-01 0.000000000000000e+00)
"out" (6.811547119907857e+04 -5.105759961946651e+03)
"Xopamp.net1" (3.144511111675599e-01 5.838036100671309e-02)
"Xopamp.net3" (-3.566453363058619e-01 2.646090826899893e-02)
"Xopamp.net2" (-4.300089939417407e+02 3.219297237046820e+01)
"Xopamp.net8" (-4.299955295484072e+02 3.237259465835069e+01)
"vdd:p" (-6.413059919911776e-02 4.802492508780252e-03)
"vin:p" (-8.185519848821495e-15 5.789400349372272e-14)
"vip:p" (-8.821112500009084e-13 -1.192163150620756e-11)
"freq" 6.309573444801939e+00
"Xopamp:1" (6.392190102838198e-02 -6.026285383321847e-03)
"Xopamp:2" (-6.392139304357201e-02 6.031668545636625e-03)
"Xopamp:3" (1.393498030600154e-12 1.496018618860478e-11)
"Xopamp:4" (1.293091519483843e-14 -7.333204701534666e-14)
"Xopamp:5" (-5.917675725195422e-22 -8.740197284637900e-21)
"Xopamp:6" (-5.080067861906107e-07 -5.383176724522232e-06)
"dd" (0.000000000000000e+00 0.000000000000000e+00)
"net7" (3.679895516784929e-05 3.899600951853062e-04)
"inn" (-5.000000000000000e-01 0.000000000000000e+00)
"inp" (5.000000000000000e-01 0.000000000000000e+00)
"out" (6.789359418316552e+04 -6.406832822456196e+03)
"Xopamp.net1" (3.169881060080680e-01 7.325710832113932e-02)
"Xopamp.net3" (-3.554954449637056e-01 3.320379663409696e-02)
"Xopamp.net2" (-4.286100090795531e+02 4.039653128012569e+01)
"Xopamp.net8" (-4.285887389669730e+02 4.062192573099515e+01)
"vdd:p" (-6.392190102838199e-02 6.026285383321848e-03)
"vin:p" (-1.293091519483843e-14 7.333204701534667e-14)
"vip:p" (-1.393498030600154e-12 -1.496018618860478e-11)
"freq" 7.943282347242823e+00
"Xopamp:1" (6.359390767926690e-02 -7.547677379195500e-03)
"Xopamp:2" (-6.359310670646981e-02 7.554419571325217e-03)
"Xopamp:3" (2.197202037395202e-12 1.873827651529265e-11)
"Xopamp:4" (2.038885775170605e-14 -9.320560022428403e-14)
"Xopamp:5" (-2.058286081180602e-21 -3.799499158345835e-20)
"Xopamp:6" (-8.009828769816544e-07 -6.742210299087820e-06)
"dd" (0.000000000000000e+00 0.000000000000000e+00)
"net7" (5.802285865917873e-05 4.884092207029295e-04)
"inn" (-5.000000000000000e-01 0.000000000000000e+00)
"inp" (5.000000000000000e-01 0.000000000000000e+00)
"out" (6.754488873605766e+04 -8.024297571773132e+03)
"Xopamp.net1" (3.209752872987391e-01 9.175154817014328e-02)
"Xopamp.net3" (-3.536882575100411e-01 4.158640497022144e-02)
"Xopamp.net2" (-4.264113422890970e+02 5.059501267400241e+01)
"Xopamp.net8" (-4.263778045777607e+02 5.087731005452589e+01)
"vdd:p" (-6.359390767926688e-02 7.547677379195501e-03)
"vin:p" (-2.038885775170605e-14 9.320560022428403e-14)
"vip:p" (-2.197202037395202e-12 -1.873827651529265e-11)
"freq" 1.000000000000001e+01
"Xopamp:1" (6.308091899683474e-02 -9.425238463770714e-03)
"Xopamp:2" (-6.307965979339447e-02 9.433657846189753e-03)
"Xopamp:3" (3.454212184212335e-12 2.340208962285158e-11)
"Xopamp:4" (3.205323830998529e-14 -1.190834654796799e-13)
"Xopamp:5" (-5.158029057314994e-21 -1.059295407042357e-20)
"Xopamp:6" (-1.259217672129149e-06 -8.419405438588861e-06)
"dd" (0.000000000000000e+00 0.000000000000000e+00)
"net7" (9.121749477810609e-05 6.099060729436541e-04)
"inn" (-5.000000000000000e-01 0.000000000000000e+00)
"inp" (5.000000000000000e-01 0.000000000000000e+00)
"out" (6.699950589445489e+04 -1.002042275176951e+04)
"Xopamp.net1" (3.272113249382542e-01 1.145756718729809e-01)
"Xopamp.net3" (-3.508617773073346e-01 5.193144369666967e-02)
"Xopamp.net2" (-4.229725799584872e+02 6.318103379450705e+01)
"Xopamp.net8" (-4.229198554619804e+02 6.353355549755839e+01)
"vdd:p" (-6.308091899683474e-02 9.425238463770714e-03)
"vin:p" (-3.205323830998529e-14 1.190834654796799e-13)
"vip:p" (-3.454212184212335e-12 -2.340208962285158e-11)
"freq" 1.258925411794169e+01
"Xopamp:1" (6.228464181559380e-02 -1.171574172909769e-02)
"Xopamp:2" (-6.228267134079750e-02 1.172620717878006e-02)
"Xopamp:3" (5.405382784027592e-12 2.909410072963877e-11)
"Xopamp:4" (5.015905564965868e-14 -1.533263350181321e-13)
"Xopamp:5" (-1.108829458248931e-20 -1.280111341431812e-20)
"Xopamp:6" (-1.970484748551083e-06 -1.046547678602007e-05)
"dd" (0.000000000000000e+00 0.000000000000000e+00)
"net7" (1.427432507735253e-04 7.581245047271162e-04)
"inn" (-5.000000000000000e-01 0.000000000000000e+00)
"inp" (5.000000000000000e-01 0.000000000000000e+00)
"out" (6.615294548882838e+04 -1.245556656007450e+04)
"Xopamp.net1" (3.368910988389029e-01 1.424196268952595e-01)
"Xopamp.net3" (-3.464744257744516e-01 6.455172272523711e-02)
"Xopamp.net2" (-4.176348248388866e+02 7.853516673117056e+01)
"Xopamp.net8" (-4.175523180122623e+02 7.897335756680781e+01)
"vdd:p" (-6.228464181559380e-02 1.171574172909769e-02)
"vin:p" (-5.015905564965868e-14 1.533263350181321e-13)
"vip:p" (-5.405382784027592e-12 -2.909410072963877e-11)
"freq" 1.584893192461115e+01
"Xopamp:1" (6.106303795604513e-02 -1.445967331096315e-02)
"Xopamp:2" (-6.105997626815005e-02 1.447258986795754e-02)
"Xopamp:3" (8.398759511872203e-12 3.591774611777398e-11)
"Xopamp:4" (7.793598665231289e-14 -1.996107287799559e-13)
"Xopamp:5" (-2.070981313405556e-21 3.994657092666782e-20)
"Xopamp:6" (-3.061700324865833e-06 -1.291659012837090e-05)
"dd" (0.000000000000000e+00 0.000000000000000e+00)
"net7" (2.217911817602423e-04 9.356845086200988e-04)
"inn" (-5.000000000000000e-01 0.000000000000000e+00)
"inp" (5.000000000000000e-01 0.000000000000000e+00)
"out" (6.485419990062650e+04 -1.537277174566855e+04)
"Xopamp.net1" (3.517412659627256e-01 1.757755711097058e-01)
"Xopamp.net3" (-3.397435967113962e-01 7.967031356611851e-02)
"Xopamp.net2" (-4.094459398071274e+02 9.692880577096597e+01)
"Xopamp.net8" (-4.093177425965339e+02 9.746962479990179e+01)
"vdd:p" (-6.106303795604513e-02 1.445967331096315e-02)
"vin:p" (-7.793598665231289e-14 1.996107287799559e-13)
"vip:p" (-8.398759511872203e-12 -3.591774611777398e-11)
"freq" 1.995262314968882e+01
"Xopamp:1" (5.922221732935018e-02 -1.765431535966722e-02)
"Xopamp:2" (-5.921751131555313e-02 1.767008564433172e-02)
"Xopamp:3" (1.290944421545432e-11 4.387169180753352e-11)
"Xopamp:4" (1.197927206789284e-13 -2.637858490104786e-13)
"Xopamp:5" (-3.017042267886295e-20 -6.132318263487135e-20)
"Xopamp:6" (-4.706035666362483e-06 -1.577032710518347e-05)
"dd" (0.000000000000000e+00 0.000000000000000e+00)
"net7" (3.409075930816886e-04 1.142410471817232e-03)
"inn" (-5.000000000000000e-01 0.000000000000000e+00)
"inp" (5.000000000000000e-01 0.000000000000000e+00)
"out" (6.289713531262046e+04 -1.876914884111936e+04)
"Xopamp.net1" (3.741188097747749e-01 2.146104615513961e-01)
"Xopamp.net3" (-3.296009888205799e-01 9.727224110065362e-02)
"Xopamp.net2" (-3.971062043595182e+02 1.183437321309950e+02)
"Xopamp.net8" (-3.969091568387104e+02 1.190040367476114e+02)
"vdd:p" (-5.922221732935018e-02 1.765431535966722e-02)
"vin:p" (-1.197927206789284e-13 2.637858490104786e-13)
"vip:p" (-1.290944421545432e-11 -4.387169180753352e-11)
"freq" 2.511886431509583e+01
"Xopamp:1" (5.652190479701446e-02 -2.121099513222816e-02)
"Xopamp:2" (-5.651478671462682e-02 2.122994256261414e-02)
"Xopamp:3" (1.952619892917387e-11 5.274536186112619e-11)
"Xopamp:4" (1.811926510723383e-13 -3.551538543673761e-13)
"Xopamp:5" (5.517785189973230e-21 2.312641280627475e-20)
"Xopamp:6" (-7.118104193518301e-06 -1.894747961175291e-05)
"dd" (0.000000000000000e+00 0.000000000000000e+00)
"net7" (5.156402843004210e-04 1.372564851580584e-03)
"inn" (-5.000000000000000e-01 0.000000000000000e+00)
"inp" (5.000000000000000e-01 0.000000000000000e+00)
"out" (6.002630371272805e+04 -2.255042561157798e+04)
"Xopamp.net1" (4.069445838242657e-01 2.578463618474176e-01)
"Xopamp.net3" (-3.147227270375613e-01 1.168689333296819e-01)
"Xopamp.net2" (-3.790049609391176e+02 1.421855379969190e+02)
"Xopamp.net8" (-3.787069164199843e+02 1.429788690443421e+02)
"vdd:p" (-5.652190479701447e-02 2.121099513222816e-02)
"vin:p" (-1.811926510723383e-13 3.551538543673761e-13)
"vip:p" (-1.952619892917387e-11 -5.274536186112619e-11)
"freq" 3.162277660168384e+01
"Xopamp:1" (5.271307997341761e-02 -2.490163383913436e-02)
"Xopamp:2" (-5.270255961946116e-02 2.492387809777124e-02)
"Xopamp:3" (2.885921464101184e-11 6.198832056628485e-11)
"Xopamp:4" (2.677980168609227e-13 -4.880732385001574e-13)
"Xopamp:5" (-2.669849380097845e-20 -9.839035865051807e-20)
"Xopamp:6" (-1.052039761614081e-05 -2.224431675221154e-05)
"dd" (0.000000000000000e+00 0.000000000000000e+00)
"net7" (7.621029425870500e-04 1.611389458674709e-03)
"inn" (-5.000000000000000e-01 0.000000000000000e+00)
"inp" (5.000000000000000e-01 0.000000000000000e+00)
"out" (5.597695957792136e+04 -2.647412056804484e+04)
"Xopamp.net1" (4.532457514739223e-01 3.027106743667886e-01)
"Xopamp.net3" (-2.937367514406857e-01 1.372037146036661e-01)
"Xopamp.net2" (-3.534729291613992e+02 1.669253226770944e+02)
"Xopamp.net8" (-3.530324271060605e+02 1.678566903835800e+02)
"vdd:p" (-5.271307997341761e-02 2.490163383913435e-02)
"vin:p" (-2.677980168609227e-13 4.880732385001574e-13)
"vip:p" (-2.885921464101184e-11 -6.198832056628485e-11)
"freq" 3.981071705534978e+01
"Xopamp:1" (4.762748355690774e-02 -2.832121817267582e-02)
"Xopamp:2" (-4.761242045842475e-02 2.834651718022060e-02)
"Xopamp:3" (4.132078803459667e-11 7.061876341881748e-11)
"Xopamp:4" (3.834346970576433e-13 -6.833006209683904e-13)
"Xopamp:5" (-1.317009159226856e-20 7.541761512422073e-21)
"Xopamp:6" (-1.506314097427160e-05 -2.529906750105257e-05)
"dd" (0.000000000000000e+00 0.000000000000000e+00)
"net7" (1.091183340048563e-03 1.832677075318569e-03)
"inn" (-5.000000000000000e-01 0.000000000000000e+00)
"inp" (5.000000000000000e-01 0.000000000000000e+00)
"out" (5.057021841519989e+04 -3.010964468271790e+04)
"Xopamp.net1" (5.150677209771590e-01 3.442799331233788e-01)
"Xopamp.net3" (-2.657159820043062e-01 1.560450301718893e-01)
"Xopamp.net2" (-3.193822016549919e+02 1.898481247485499e+02)
"Xopamp.net8" (-3.187514882996571e+02 1.909073910245984e+02)
"vdd:p" (-4.762748355690774e-02 2.832121817267582e-02)
"vin:p" (-3.834346970576433e-13 6.833006209683904e-13)