HEADER
"PSFversion" "1.00"
"simulator" "spectre"
"version" "23.1.0.063"
"date" "8:14:00 PM, Fri Jan 3, 2025"
"design" ""
"analysis type" "ac"
"analysis name" "outac1"
"analysis description" "AC Analysis `outac1': freq = (100 mHz -> 1 GHz)"
"xVecSorted" "ascending"
"tolerance.relative" 0.00100000
"start" 0.100000
"stop" 1.00000e+09
"operating point producer" "outac1"
TYPE
"sweep" FLOAT DOUBLE PROP(
"key" "sweep"
)
"V" COMPLEX DOUBLE PROP(
"units" "V"
"key" "node"
"tolerance" 1.00000e-06
)
"I" COMPLEX DOUBLE PROP(
"units" "A"
"key" "branch"
"tolerance" 1.00000e-12
)
"MMF" COMPLEX DOUBLE PROP(
"units" "A*turn"
"key" "node"
"tolerance" 1.00000e-12
)
"Wb" COMPLEX DOUBLE PROP(
"units" "Wb"
"key" "node"
"tolerance" 1.00000e-09
)
"Temp" COMPLEX DOUBLE PROP(
"units" "C"
"key" "node"
"tolerance" 0.000100000
)
"Pwr" COMPLEX DOUBLE PROP(
"units" "W"
"key" "node"
"tolerance" 1.00000e-09
)
"U" COMPLEX DOUBLE PROP(
"units" ""
"key" "node"
"tolerance" 1.00000e-06
)
"V/Sec" COMPLEX DOUBLE PROP(
"units" "V/s"
"key" "node"
"tolerance" 0.000100000
)
"I/Sec" COMPLEX DOUBLE PROP(
"units" "A/s"
"key" "node"
"tolerance" 1.00000e-06
)
"1/Sec" COMPLEX DOUBLE PROP(
"units" "1/s"
"key" "node"
"tolerance" 0.000100000
)
"HOD" COMPLEX DOUBLE PROP(
"units" ""
"key" "node"
"tolerance" 0.0100000
)
"Q" COMPLEX DOUBLE PROP(
"units" "Coul"
"key" "node"
"tolerance" 1.00000e-15
)
SWEEP
"freq" "sweep" PROP(
"sweep_direction" 0
"units" "Hz"
"plot" 0
"grid" 3
)
TRACE
"Xopamp:1" "I"
"Xopamp:2" "I"
"Xopamp:3" "I"
"Xopamp:4" "I"
"Xopamp:5" "I"
"Xopamp:6" "I"
"dd" "V"
"net7" "V"
"inn" "V"
"inp" "V"
"out" "V"
"Xopamp.net1" "V"
"Xopamp.net3" "V"
"Xopamp.net2" "V"
"Xopamp.net8" "V"
"vdd:p" "I"
"vin:p" "I"
"vip:p" "I"
VALUE
"freq" 1.000000000000000e-01
"Xopamp:1" (3.606417936367883e-02 -1.861815780423533e-05)
"Xopamp:2" (-3.606417929640589e-02 1.879126556987869e-05)
"Xopamp:3" (3.338738089996670e-16 6.535781631687675e-13)
"Xopamp:4" (2.571373117327741e-18 -2.393826512389205e-15)
"Xopamp:5" (-3.494063743712721e-26 1.153692830267272e-22)
"Xopamp:6" (-9.695187475509613e-11 -1.731083932386901e-07)
"dd" (0.000000000000000e+00 0.000000000000000e+00)
"net7" (4.169257092306009e-09 7.999131848477898e-06)
"inn" (-5.000000000000000e-01 0.000000000000000e+00)
"inp" (5.000000000000000e-01 0.000000000000000e+00)
"out" (1.377552916249622e+05 -7.179957366638220e+01)
"Xopamp.net1" (2.290463616284980e-01 3.486167599344422e-04)
"Xopamp.net3" (-3.768437335100623e-01 1.862183041846058e-04)
"Xopamp.net2" (-4.624041394217207e+02 2.385785237757298e-01)
"Xopamp.net8" (-4.624041386548608e+02 2.400498473527016e-01)
"vdd:p" (-3.606417936367884e-02 1.861815780423534e-05)
"vin:p" (-2.571373117327741e-18 2.393826512389204e-15)
"vip:p" (-3.338738089996670e-16 -6.535781631687675e-13)
"freq" 1.258925411794167e-01
"Xopamp:1" (3.606417368806102e-02 -2.343886825651457e-05)
"Xopamp:2" (-3.606417356801597e-02 2.365679798703569e-05)
"Xopamp:3" (5.291542429511683e-16 8.228060300745681e-13)
"Xopamp:4" (4.075351101427362e-18 -3.013650014701553e-15)
"Xopamp:5" (7.909207046299035e-26 -5.616800599404468e-22)
"Xopamp:6" (-1.728793333322844e-10 -2.179305540429510e-07)
"dd" (0.000000000000000e+00 0.000000000000000e+00)
"net7" (6.607826133346335e-09 1.007030875628473e-05)
"inn" (-5.000000000000000e-01 0.000000000000000e+00)
"inp" (5.000000000000000e-01 0.000000000000000e+00)
"out" (1.377552697373487e+05 -9.039029348313630e+01)
"Xopamp.net1" (2.290464679025949e-01 4.388824283275435e-04)
"Xopamp.net3" (-3.768436767427703e-01 2.344349180316120e-04)
"Xopamp.net2" (-4.624040666926927e+02 3.003525185687793e-01)
"Xopamp.net8" (-4.624040654773019e+02 3.022048049144995e-01)
"vdd:p" (-3.606417368806102e-02 2.343886825651457e-05)
"vin:p" (-4.075351101427362e-18 3.013650014701552e-15)
"vip:p" (-5.291542429511683e-16 -8.228060300745681e-13)
"freq" 1.584893192461114e-01
"Xopamp:1" (3.606416469281668e-02 -2.950777944140577e-05)
"Xopamp:2" (-3.606416448913347e-02 2.978213664805596e-05)
"Xopamp:3" (8.386527462323088e-16 1.035851164580809e-12)
"Xopamp:4" (6.458994591088080e-18 -3.793962554741914e-15)
"Xopamp:5" (6.761392411971338e-25 -2.605276694818429e-23)
"Xopamp:6" (-2.421483560360367e-10 -2.743582216526841e-07)
"dd" (0.000000000000000e+00 0.000000000000000e+00)
"net7" (1.047269601855494e-08 1.267776440536973e-05)
"inn" (-5.000000000000000e-01 0.000000000000000e+00)
"inp" (5.000000000000000e-01 0.000000000000000e+00)
"out" (1.377552350478331e+05 -1.137946087905856e+02)
"Xopamp.net1" (2.290466363356186e-01 5.525201026793537e-04)
"Xopamp.net3" (-3.768435867727124e-01 2.951360014031683e-04)
"Xopamp.net2" (-4.624039514249985e+02 3.781213229070892e-01)
"Xopamp.net8" (-4.624039494987345e+02 3.804532126704272e-01)
"vdd:p" (-3.606416469281667e-02 2.950777944140577e-05)
"vin:p" (-6.458994591088080e-18 3.793962554741914e-15)
"vip:p" (-8.386527462323089e-16 -1.035851164580809e-12)
"freq" 1.995262314968880e-01
"Xopamp:1" (3.606415043632446e-02 -3.714807855878376e-05)
"Xopamp:2" (-3.606415010008378e-02 3.749347368029534e-05)
"Xopamp:3" (1.329174497875259e-15 1.304058843823839e-12)
"Xopamp:4" (1.023681247209597e-17 -4.776319800189683e-15)
"Xopamp:5" (-8.085393833172800e-25 -9.809021603835483e-22)
"Xopamp:6" (-3.736240563963649e-10 -3.453963784769869e-07)
"dd" (0.000000000000000e+00 0.000000000000000e+00)
"net7" (1.659809800229956e-08 1.596035340472801e-05)
"inn" (-5.000000000000000e-01 0.000000000000000e+00)
"inp" (5.000000000000000e-01 0.000000000000000e+00)
"out" (1.377551800686919e+05 -1.432588675577046e+02)
"Xopamp.net1" (2.290469032837976e-01 6.955813201852592e-04)
"Xopamp.net3" (-3.768434441798729e-01 3.715540638165411e-04)
"Xopamp.net2" (-4.624037687381337e+02 4.760263521691347e-01)
"Xopamp.net8" (-4.624037656852122e+02 4.789620262780694e-01)
"vdd:p" (-3.606415043632445e-02 3.714807855878376e-05)
"vin:p" (-1.023681247209597e-17 4.776319800189683e-15)
"vip:p" (-1.329174497875259e-15 -1.304058843823839e-12)
"freq" 2.511886431509581e-01
"Xopamp:1" (3.606412784133030e-02 -4.676663051600961e-05)
"Xopamp:2" (-3.606412729500044e-02 4.720145693654519e-05)
"Xopamp:3" (2.106598280803567e-15 1.641711799175465e-12)
"Xopamp:4" (1.622424413731823e-17 -6.013038209952865e-15)
"Xopamp:5" (-2.153511534615004e-24 -7.112219115897726e-22)
"Xopamp:6" (-5.756860592974680e-10 -4.348280028139823e-07)
"dd" (0.000000000000000e+00 0.000000000000000e+00)
"net7" (2.630619589236883e-08 2.009288177275649e-05)
"inn" (-5.000000000000000e-01 0.000000000000000e+00)
"inp" (5.000000000000000e-01 0.000000000000000e+00)
"out" (1.377550929327152e+05 -1.803521147563598e+02)
"Xopamp.net1" (2.290473263677127e-01 8.756844460565313e-04)
"Xopamp.net3" (-3.768432181856856e-01 4.677585569264166e-04)
"Xopamp.net2" (-4.624034791992641e+02 5.992812923702030e-01)
"Xopamp.net8" (-4.624034743607128e+02 6.029770847689719e-01)
"vdd:p" (-3.606412784133029e-02 4.676663051600961e-05)
"vin:p" (-1.622424413731823e-17 6.013038209952866e-15)
"vip:p" (-2.106598280803567e-15 -1.641711799175465e-12)
"freq" 3.162277660168380e-01
"Xopamp:1" (3.606409203073640e-02 -5.887564055889622e-05)
"Xopamp:2" (-3.606409115143816e-02 5.942305404064181e-05)
"Xopamp:3" (3.338729927483370e-15 2.066790672071027e-12)
"Xopamp:4" (2.571366830860466e-17 -7.569982244713275e-15)
"Xopamp:5" (-3.769973082302475e-24 1.349295641068126e-21)
"Xopamp:6" (-9.258634777063824e-10 -5.474155006309980e-07)
"dd" (0.000000000000000e+00 0.000000000000000e+00)
"net7" (4.169246899345516e-08 2.529541410081252e-05)
"inn" (-5.000000000000000e-01 0.000000000000000e+00)
"inp" (5.000000000000000e-01 0.000000000000000e+00)
"out" (1.377549548317247e+05 -2.270496327246526e+02)
"Xopamp.net1" (2.290479969094333e-01 1.102420296691393e-03)
"Xopamp.net3" (-3.768428600096221e-01 5.888725435662894e-04)
"Xopamp.net2" (-4.624030203118309e+02 7.544496914563975e-01)
"Xopamp.net8" (-4.624030126432515e+02 7.591024137595755e-01)
"vdd:p" (-3.606409203073641e-02 5.887564055889622e-05)
"vin:p" (-2.571366830860466e-17 7.569982244713273e-15)
"vip:p" (-3.338729927483370e-15 -2.066790672071026e-12)
"freq" 3.981071705534974e-01
"Xopamp:1" (3.606403527491699e-02 -7.411992227179158e-05)
"Xopamp:2" (-3.606403386790084e-02 7.480907391975033e-05)
"Xopamp:3" (5.291521926241115e-15 2.601931246054351e-12)
"Xopamp:4" (4.075335310563112e-17 -9.530074220749985e-15)
"Xopamp:5" (-1.794613846988213e-24 -2.035483173824624e-21)
"Xopamp:6" (-1.423204308782401e-09 -6.891541895624628e-07)
"dd" (0.000000000000000e+00 0.000000000000000e+00)
"net7" (6.607800529831934e-08 3.184498901547097e-05)
"inn" (-5.000000000000000e-01 0.000000000000000e+00)
"inp" (5.000000000000000e-01 0.000000000000000e+00)
"out" (1.377547359569722e+05 -2.858380982292402e+02)
"Xopamp.net1" (2.290490596436872e-01 1.387862720899942e-03)
"Xopamp.net3" (-3.768422923402886e-01 7.413454315382422e-04)
"Xopamp.net2" (-4.624022930261467e+02 9.497943794392492e-01)
"Xopamp.net8" (-4.624022808722867e+02 9.556518004741689e-01)
"vdd:p" (-3.606403527491699e-02 7.411992227179158e-05)
"vin:p" (-4.075335310563112e-17 9.530074220749987e-15)
"vip:p" (-5.291521926241115e-15 -2.601931246054351e-12)
"freq" 5.011872336272725e-01
"Xopamp:1" (3.606394532337462e-02 -9.331121870013355e-05)
"Xopamp:2" (-3.606394307998533e-02 9.417880703758622e-05)
"Xopamp:3" (8.386475960578602e-15 3.275629280878775e-12)
"Xopamp:4" (6.458954926340295e-17 -1.199771487678611e-14)
"Xopamp:5" (-8.049314159551662e-24 6.043272771035415e-22)
"Xopamp:6" (-2.246863579957119e-09 -8.675915580046866e-07)
"dd" (0.000000000000000e+00 0.000000000000000e+00)
"net7" (1.047263170561266e-07 4.009036495421720e-05)
"inn" (-5.000000000000000e-01 0.000000000000000e+00)
"inp" (5.000000000000000e-01 0.000000000000000e+00)
"out" (1.377543890652916e+05 -3.598479393823162e+02)
"Xopamp.net1" (2.290507439570550e-01 1.747211247722750e-03)
"Xopamp.net3" (-3.768413926487210e-01 9.332962525405572e-04)
"Xopamp.net2" (-4.624011403607505e+02 1.195717269306180e+00)
"Xopamp.net8" (-4.624011210982291e+02 1.203091306925640e+00)
"vdd:p" (-3.606394532337460e-02 9.331121870013357e-05)
"vin:p" (-6.458954926340295e-17 1.199771487678611e-14)
"vip:p" (-8.386475960578602e-15 -3.275629280878776e-12)
"freq" 6.309573444801935e-01
"Xopamp:1" (3.606380276071538e-02 -1.174713956072706e-04)
"Xopamp:2" (-3.606379919177264e-02 1.185636202531602e-04)
"Xopamp:3" (1.329161561278732e-14 4.123756810681630e-12)
"Xopamp:4" (1.023671283919158e-16 -1.510435237405001e-14)
"Xopamp:5" (-1.924854408963867e-23 -5.987134126988106e-21)
"Xopamp:6" (-3.590728953176834e-09 -1.092228702353871e-06)
"dd" (0.000000000000000e+00 0.000000000000000e+00)
"net7" (1.659793645620164e-07 5.047057777724294e-05)
"inn" (-5.000000000000000e-01 0.000000000000000e+00)
"inp" (5.000000000000000e-01 0.000000000000000e+00)
"out" (1.377538392826069e+05 -4.530199073001435e+02)
"Xopamp.net1" (2.290534133964698e-01 2.199599861032329e-03)
"Xopamp.net3" (-3.768399667429616e-01 1.174945679939422e-03)
"Xopamp.net2" (-4.623993135211019e+02 1.505312848056386e+00)
"Xopamp.net8" (-4.623992829921847e+02 1.514596174353310e+00)
"vdd:p" (-3.606380276071538e-02 1.174713956072706e-04)
"vin:p" (-1.023671283919158e-16 1.510435237405001e-14)
"vip:p" (-1.329161561278732e-14 -4.123756810681630e-12)
"freq" 7.943282347242818e-01
"Xopamp:1" (3.606357681645812e-02 -1.478867896800677e-04)
"Xopamp:2" (-3.606357114667640e-02 1.492618103446962e-04)
"Xopamp:3" (2.106565785768368e-14 5.191470056512825e-12)
"Xopamp:4" (1.622399387251880e-16 -1.901550090566108e-14)
"Xopamp:5" (1.134470389595982e-23 4.531869690825511e-21)
"Xopamp:6" (-5.713223790541400e-09 -1.375025653730232e-06)
"dd" (0.000000000000000e+00 0.000000000000000e+00)
"net7" (2.630579010974068e-07 6.353829100672444e-05)
"inn" (-5.000000000000000e-01 0.000000000000000e+00)
"inp" (5.000000000000000e-01 0.000000000000000e+00)
"out" (1.377529679447615e+05 -5.703146660115511e+02)
"Xopamp.net1" (2.290576441291815e-01 2.769114645606095e-03)
"Xopamp.net3" (-3.768377068579436e-01 1.479159618033282e-03)
"Xopamp.net2" (-4.623964182052475e+02 1.895064610515593e+00)
"Xopamp.net8" (-4.623963698204803e+02 1.906751551973578e+00)
"vdd:p" (-3.606357681645812e-02 1.478867896800677e-04)
"vin:p" (-1.622399387251880e-16 1.901550090566108e-14)
"vip:p" (-2.106565785768368e-14 -5.191470056512826e-12)
"freq" 1.000000000000000e+00
"Xopamp:1" (3.606321872479768e-02 -1.861765712413823e-04)
"Xopamp:2" (-3.606320972546500e-02 1.879076023443750e-04)
"Xopamp:3" (3.338648304545432e-14 6.535609363215409e-12)
"Xopamp:4" (2.571303967878271e-16 -2.393959187225207e-14)
"Xopamp:5" (3.252437742314561e-23 8.817890662044067e-22)
"Xopamp:6" (-9.011299800954100e-09 -1.731037557827966e-06)
"dd" (0.000000000000000e+00 0.000000000000000e+00)
"net7" (4.169144972481702e-07 7.998916727758699e-05)
"inn" (-5.000000000000000e-01 0.000000000000000e+00)
"inp" (5.000000000000000e-01 0.000000000000000e+00)
"out" (1.377515869899204e+05 -7.179764282944769e+02)
"Xopamp.net1" (2.290643492790267e-01 3.486073848625079e-03)
"Xopamp.net3" (-3.768341252401220e-01 1.862132964032001e-03)
"Xopamp.net2" (-4.623918295138845e+02 2.385721079143987e+00)
"Xopamp.net8" (-4.623917528299653e+02 2.400433919237854e+00)
"vdd:p" (-3.606321872479768e-02 1.861765712413823e-04)
"vin:p" (-2.571303967878271e-16 2.393959187225207e-14)
"vip:p" (-3.338648304545432e-14 -6.535609363215409e-12)
"freq" 1.258925411794168e+00
"Xopamp:1" (3.606265120246880e-02 -2.343786928441518e-04)
"Xopamp:2" (-3.606263692629023e-02 2.365578972645275e-04)
"Xopamp:3" (5.291316902273940e-14 8.227716585470420e-12)
"Xopamp:4" (4.075177408650688e-16 -3.013914731554135e-14)
"Xopamp:5" (-4.536636548521025e-23 -1.643549017236099e-21)
"Xopamp:6" (-1.430492218439767e-08 -2.179212373929524e-06)
"dd" (0.000000000000000e+00 0.000000000000000e+00)
"net7" (6.607544505600159e-07 1.006987954090805e-04)
"inn" (-5.000000000000000e-01 0.000000000000000e+00)
"inp" (5.000000000000000e-01 0.000000000000000e+00)
"out" (1.377493983807064e+05 -9.038644101878390e+02)
"Xopamp.net1" (2.290749759500056e-01 4.388637228999731e-03)
"Xopamp.net3" (-3.768284489055073e-01 2.344249263544250e-03)
"Xopamp.net2" (-4.623845571166282e+02 3.003397174478632e+00)
"Xopamp.net8" (-4.623844355827376e+02 3.021919248471388e+00)
"vdd:p" (-3.606265120246879e-02 2.343786928441518e-04)
"vin:p" (-4.075177408650688e-16 3.013914731554135e-14)
"vip:p" (-5.291316902273941e-14 -8.227716585470420e-12)
"freq" 1.584893192461114e+00
"Xopamp:1" (3.606175177713113e-02 -2.950578628071216e-04)
"Xopamp:2" (-3.606172913805889e-02 2.978012495487248e-04)
"Xopamp:3" (8.385960977921477e-14 1.035782586111313e-11)
"Xopamp:4" (6.458558305654691e-16 -3.794490720869710e-14)
"Xopamp:5" (1.160541759089713e-22 1.387948654721137e-20)
"Xopamp:6" (-2.265811091097556e-08 -2.743396668653337e-06)
"dd" (0.000000000000000e+00 0.000000000000000e+00)
"net7" (1.047198861963113e-06 1.267690802988295e-04)
"inn" (-5.000000000000000e-01 0.000000000000000e+00)
"inp" (5.000000000000000e-01 0.000000000000000e+00)
"out" (1.377459298113109e+05 -1.137869223091259e+03)
"Xopamp.net1" (2.290918173968474e-01 5.524827813937904e-03)
"Xopamp.net3" (-3.768194528908703e-01 2.951160658932127e-03)
"Xopamp.net2" (-4.623730316170577e+02 3.780957819624924e+00)
"Xopamp.net8" (-4.623728390036718e+02 3.804275142109705e+00)
"vdd:p" (-3.606175177713113e-02 2.950578628071217e-04)
"vin:p" (-6.458558305654690e-16 3.794490720869710e-14)
"vip:p" (-8.385960977921477e-14 -1.035782586111313e-11)
"freq" 1.995262314968881e+00
"Xopamp:1" (3.606032637681275e-02 -3.714410184064947e-04)
"Xopamp:2" (-3.606029048430986e-02 3.748945998647270e-04)
"Xopamp:3" (1.329032209162131e-13 1.303922017302957e-11)
"Xopamp:4" (1.023571661680505e-15 -4.777373587686609e-14)
"Xopamp:5" (7.324255766595614e-23 -1.164333911301433e-20)
"Xopamp:6" (-3.590804360072173e-08 -3.453594343813982e-06)
"dd" (0.000000000000000e+00 0.000000000000000e+00)
"net7" (1.659632116815812e-06 1.595864477985950e-04)
"inn" (-5.000000000000000e-01 0.000000000000000e+00)
"inp" (5.000000000000000e-01 0.000000000000000e+00)
"out" (1.377404328570738e+05 -1.432435316290422e+03)
"Xopamp.net1" (2.291185075540894e-01 6.955068574319207e-03)
"Xopamp.net3" (-3.768051960964591e-01 3.715142888479648e-03)
"Xopamp.net2" (-4.623547661201127e+02 4.759753933388353e+00)
"Xopamp.net8" (-4.623544608606506e+02 4.789107531769730e+00)
"vdd:p" (-3.606032637681276e-02 3.714410184064947e-04)
"vin:p" (-1.023571661680506e-15 4.777373587686610e-14)
"vip:p" (-1.329032209162131e-13 -1.303922017302957e-11)
"freq" 2.511886431509582e+00
"Xopamp:1" (3.605806750256559e-02 -4.675869642699358e-04)
"Xopamp:2" (-3.605801060695730e-02 4.719344907604402e-04)
"Xopamp:3" (2.106240890545117e-13 1.641438811812576e-11)
"Xopamp:4" (1.622149164910581e-15 -6.015140658133057e-14)
"Xopamp:5" (-1.573315538122984e-22 1.057216760125731e-20)
"Xopamp:6" (-5.693040509602132e-08 -4.347543031901751e-06)
"dd" (0.000000000000000e+00 0.000000000000000e+00)
"net7" (2.630173297188081e-06 2.008947283570238e-04)
"inn" (-5.000000000000000e-01 0.000000000000000e+00)
"inp" (5.000000000000000e-01 0.000000000000000e+00)
"out" (1.377317216703258e+05 -1.803215175103288e+03)
"Xopamp.net1" (2.291608042394975e-01 8.755358828208635e-03)
"Xopamp.net3" (-3.767826029306459e-01 4.676792004996753e-03)
"Xopamp.net2" (-4.623258202442569e+02 5.991796226309622e+00)
"Xopamp.net8" (-4.623253364712099e+02 6.028747880171055e+00)
"vdd:p" (-3.605806750256559e-02 4.675869642699358e-04)
"vin:p" (-1.622149164910581e-15 6.015140658133058e-14)
"vip:p" (-2.106240890545117e-13 -1.641438811812576e-11)
"freq" 3.162277660168382e+00
"Xopamp:1" (3.605448801333418e-02 -5.885981157250536e-04)
"Xopamp:2" (-3.605439783548817e-02 5.940707787568618e-04)
"Xopamp:3" (3.337832294613086e-13 2.066246045807907e-11)
"Xopamp:4" (2.570675507066345e-15 -7.574176755710629e-14)
"Xopamp:5" (-3.546553710612824e-22 -1.984954745509890e-20)
"Xopamp:6" (-9.023417032933445e-08 -5.472683524654574e-06)
"dd" (0.000000000000000e+00 0.000000000000000e+00)
"net7" (4.168125977878637e-06 2.528861306566813e-04)
"inn" (-5.000000000000000e-01 0.000000000000000e+00)
"inp" (5.000000000000000e-01 0.000000000000000e+00)
"out" (1.377179176264769e+05 -2.269885893723480e+03)
"Xopamp.net1" (2.292278290108556e-01 1.102123904070790e-02)
"Xopamp.net3" (-3.767468010289540e-01 5.887142227059642e-03)
"Xopamp.net2" (-4.622799516214021e+02 7.542468541910790e+00)
"Xopamp.net8" (-4.622791849696356e+02 7.588983255662304e+00)
"vdd:p" (-3.605448801333419e-02 5.885981157250539e-04)
"vin:p" (-2.570675507066345e-15 7.574176755710627e-14)
"vip:p" (-3.337832294613086e-13 -2.066246045807907e-11)
"freq" 3.981071705534976e+00
"Xopamp:1" (3.604881637466485e-02 -7.408834435776641e-04)
"Xopamp:2" (-3.604867346168984e-02 7.477720239298518e-04)
"Xopamp:3" (5.289267536082720e-13 2.600844748101298e-11)
"Xopamp:4" (4.073599062248993e-15 -9.538442028035993e-14)
"Xopamp:5" (-3.094332846364592e-22 -9.949956359095077e-21)
"Xopamp:6" (-1.429156496428488e-07 -6.888606194085742e-06)
"dd" (0.000000000000000e+00 0.000000000000000e+00)
"net7" (6.604985354043566e-06 3.183142134298908e-04)
"inn" (-5.000000000000000e-01 0.000000000000000e+00)
"inp" (5.000000000000000e-01 0.000000000000000e+00)
"out" (1.376960453581656e+05 -2.857163202654915e+03)
"Xopamp.net1" (2.293340285998087e-01 1.387271434732907e-02)
"Xopamp.net3" (-3.766900735360230e-01 7.410295905619289e-03)
"Xopamp.net2" (-4.622072735832032e+02 9.493897308049545e+00)
"Xopamp.net8" (-4.622060587150068e+02 9.552446563106788e+00)
"vdd:p" (-3.604881637466485e-02 7.408834435776641e-04)
"vin:p" (-4.073599062248993e-15 9.538442028035993e-14)
"vip:p" (-5.289267536082720e-13 -2.600844748101298e-11)
"freq" 5.011872336272727e+00
"Xopamp:1" (3.603983112234452e-02 -9.324822849183204e-04)
"Xopamp:2" (-3.603960466412484e-02 9.411523114374401e-04)
"Xopamp:3" (8.380814627767482e-13 3.273461983433873e-11)
"Xopamp:4" (6.454594776207283e-15 -1.201440660390756e-13)
"Xopamp:5" (-1.135949883383278e-21 2.713424372006888e-20)
"Xopamp:6" (-2.264946948654242e-07 -8.670058590150286e-06)
"dd" (0.000000000000000e+00 0.000000000000000e+00)
"net7" (1.046556210100122e-05 4.006330076894136e-04)
"inn" (-5.000000000000000e-01 0.000000000000000e+00)
"inp" (5.000000000000000e-01 0.000000000000000e+00)
"out" (1.376613943761386e+05 -3.596050221555183e+03)
"Xopamp.net1" (2.295022745263731e-01 1.746031776564596e-02)
"Xopamp.net3" (-3.766002034178433e-01 9.326662271097359e-03)
"Xopamp.net2" (-4.620921339296683e+02 1.194910094337535e+01)
"Xopamp.net8" (-4.620902089778520e+02 1.202279153987148e+01)
"vdd:p" (-3.603983112234453e-02 9.324822849183205e-04)
"vin:p" (-6.454594776207283e-15 1.201440660390756e-13)
"vip:p" (-8.380814627767481e-13 -3.273461983433873e-11)
"freq" 6.309573444801939e+00
"Xopamp:1" (3.602559971645680e-02 -1.173457642247595e-03)
"Xopamp:2" (-3.602524093404137e-02 1.184368207449009e-03)
"Xopamp:3" (1.327740071370290e-12 4.119434224970965e-11)
"Xopamp:4" (1.022576504717838e-14 -1.513764333801584e-13)
"Xopamp:5" (5.003426747763201e-22 -3.284248188901432e-20)
"Xopamp:6" (-3.588210682073521e-07 -1.091060469641923e-05)
"dd" (0.000000000000000e+00 0.000000000000000e+00)
"net7" (1.658018556264511e-05 5.041659937163952e-04)
"inn" (-5.000000000000000e-01 0.000000000000000e+00)
"inp" (5.000000000000000e-01 0.000000000000000e+00)
"out" (1.376065119786215e+05 -4.525354188715241e+03)
"Xopamp.net1" (2.297687529717781e-01 2.197247454265843e-02)
"Xopamp.net3" (-3.764578614909394e-01 1.173689120102179e-02)
"Xopamp.net2" (-4.619097685285852e+02 1.503702970744124e+01)
"Xopamp.net8" (-4.619067189018182e+02 1.512976368684708e+01)
"vdd:p" (-3.602559971645680e-02 1.173457642247595e-03)
"vin:p" (-1.022576504717838e-14 1.513764333801584e-13)
"vip:p" (-1.327740071370290e-12 -4.119434224970966e-11)
"freq" 7.943282347242823e+00
"Xopamp:1" (3.600306768677553e-02 -1.476362819833916e-03)
"Xopamp:2" (-3.600249940062381e-02 1.490089734171802e-03)
"Xopamp:3" (2.102997441763906e-12 5.182850864648338e-11)
"Xopamp:4" (1.619651180053193e-14 -1.908188274860918e-13)
"Xopamp:5" (2.190950960382901e-21 -4.056015727238285e-20)
"Xopamp:6" (-5.683144253788766e-07 -1.372696586854476e-05)
"dd" (0.000000000000000e+00 0.000000000000000e+00)
"net7" (2.626123031777864e-05 6.343065861593417e-04)
"inn" (-5.000000000000000e-01 0.000000000000000e+00)
"inp" (5.000000000000000e-01 0.000000000000000e+00)
"out" (1.375196188199561e+05 -5.693486010213095e+03)
"Xopamp.net1" (2.301906578973101e-01 2.764423970482263e-02)
"Xopamp.net3" (-3.762324970717677e-01 1.476654050520837e-02)
"Xopamp.net2" (-4.616210365043244e+02 1.891854531557891e+01)
"Xopamp.net8" (-4.616162062235891e+02 1.903521675974493e+01)
"vdd:p" (-3.600306768677553e-02 1.476362819833916e-03)
"vin:p" (-1.619651180053193e-14 1.908188274860918e-13)
"vip:p" (-2.102997441763906e-12 -5.182850864648338e-11)
"freq" 1.000000000000001e+01
"Xopamp:1" (3.596741505563655e-02 -1.856772473922138e-03)
"Xopamp:2" (-3.596651526985796e-02 1.874036357615741e-03)
"Xopamp:3" (3.329694080606452e-12 6.518429180268533e-11)
"Xopamp:4" (2.564407754212494e-14 -2.407190731714874e-13)
"Xopamp:5" (2.525130678298650e-22 -1.847186776686271e-20)
"Xopamp:6" (-8.998038808149244e-07 -1.726394653117334e-05)
"dd" (0.000000000000000e+00 0.000000000000000e+00)
"net7" (4.157963361196367e-05 7.977462927984198e-04)
"inn" (-5.000000000000000e-01 0.000000000000000e+00)
"inp" (5.000000000000000e-01 0.000000000000000e+00)
"out" (1.373821270014995e+05 -7.160508216329858e+03)
"Xopamp.net1" (2.308582418166692e-01 3.476724171991954e-02)
"Xopamp.net3" (-3.758759009451761e-01 1.857138747761340e-02)
"Xopamp.net2" (-4.611641732521188e+02 2.379322597170930e+01)
"Xopamp.net8" (-4.611565254267585e+02 2.393995976860838e+01)
"vdd:p" (-3.596741505563657e-02 1.856772473922139e-03)
"vin:p" (-2.564407754212494e-14 2.407190731714874e-13)
"vip:p" (-3.329694080606452e-12 -6.518429180268533e-11)
"freq" 1.258925411794169e+01
"Xopamp:1" (3.591105523916375e-02 -2.333840027236328e-03)
"Xopamp:2" (-3.590963141749961e-02 2.355539584744646e-03)
"Xopamp:3" (5.268860848152736e-12 8.193492387538698e-11)
"Xopamp:4" (4.057882582391548e-14 -3.040272948981555e-13)
"Xopamp:5" (-1.500734650113752e-21 -6.396462512395087e-20)
"Xopamp:6" (-1.423841415216133e-06 -2.169963600996334e-05)
"dd" (0.000000000000000e+00 0.000000000000000e+00)
"net7" (6.579502447472409e-05 1.002714198146876e-03)
"inn" (-5.000000000000000e-01 0.000000000000000e+00)
"inp" (5.000000000000000e-01 0.000000000000000e+00)
"out" (1.371647794059035e+05 -9.000284589802603e+03)
"Xopamp.net1" (2.319135610448230e-01 4.370011980090623e-02)
"Xopamp.net3" (-3.753121924163086e-01 2.334300414530862e-02)
"Xopamp.net2" (-4.604419620653172e+02 2.990650924093200e+01)
"Xopamp.net8" (-4.604298602545737e+02 3.009094390036221e+01)
"vdd:p" (-3.591105523916375e-02 2.333840027236327e-03)
"vin:p" (-4.057882582391548e-14 3.040272948981555e-13)
"vip:p" (-5.268860848152736e-12 -8.193492387538698e-11)
"freq" 1.584893192461115e+01
"Xopamp:1" (3.582209531397284e-02 -2.930782087097948e-03)
"Xopamp:2" (-3.581984433927492e-02 2.958031885463931e-03)
"Xopamp:3" (8.329696414290105e-12 1.028971211164923e-10)
"Xopamp:4" (6.415225409888649e-14 -3.846949423386211e-13)
"Xopamp:5" (-5.316729075651103e-21 -7.608492497943454e-20)
"Xopamp:6" (-2.250988498222364e-06 -2.724989981478017e-05)
"dd" (0.000000000000000e+00 0.000000000000000e+00)
"net7" (1.040172809410124e-04 1.259185080159803e-03)
"inn" (-5.000000000000000e-01 0.000000000000000e+00)
"inp" (5.000000000000000e-01 0.000000000000000e+00)
"out" (1.368217118259375e+05 -1.130234828852712e+04)
"Xopamp.net1" (2.335793067030683e-01 5.487759434996527e-02)
"Xopamp.net3" (-3.744224189625267e-01 2.931360241388258e-02)
"Xopamp.net2" (-4.593020035421926e+02 3.755589952506764e+01)
"Xopamp.net8" (-4.592828714351973e+02 3.778750827526621e+01)
"vdd:p" (-3.582209531397284e-02 2.930782087097948e-03)
"vin:p" (-6.415225409888650e-14 3.846949423386211e-13)
"vip:p" (-8.329696414290105e-12 -1.028971211164923e-10)
"freq" 1.995262314968882e+01
"Xopamp:1" (3.568201124786751e-02 -3.675068413022616e-03)
"Xopamp:2" (-3.567845773548085e-02 3.709238423053218e-03)
"Xopamp:3" (1.314955551374202e-11 1.290385736487255e-10)
"Xopamp:4" (1.012730338025218e-13 -4.881625039717929e-13)
"Xopamp:5" (7.268328227305816e-22 -4.440093520869741e-20)
"Xopamp:6" (-3.553564834456555e-06 -3.417013869738731e-05)
"dd" (0.000000000000000e+00 0.000000000000000e+00)
"net7" (1.642053851231583e-04 1.578961009649604e-03)
"inn" (-5.000000000000000e-01 0.000000000000000e+00)
"inp" (5.000000000000000e-01 0.000000000000000e+00)
"out" (1.362814875424492e+05 -1.417263442860050e+04)
"Xopamp.net1" (2.362023353384685e-01 6.881402387195927e-02)
"Xopamp.net3" (-3.730213039503173e-01 3.675793413116668e-02)
"Xopamp.net2" (-4.575069252632715e+02 4.709340235799467e+01)
"Xopamp.net8" (-4.574767226376214e+02 4.738382925299565e+01)
"vdd:p" (-3.568201124786750e-02 3.675068413022616e-03)
"vin:p" (-1.012730338025218e-13 4.881625039717928e-13)
"vip:p" (-1.314955551374202e-11 -1.290385736487254e-10)
"freq" 2.511886431509583e+01
"Xopamp:1" (3.546224469974862e-02 -4.597865558622379e-03)
"Xopamp:2" (-3.545664778973176e-02 4.640615534484704e-03)
"Xopamp:3" (2.071104027466440e-11 1.614600032164752e-10)
"Xopamp:4" (1.595088046281070e-13 -6.221843060202934e-13)
"Xopamp:5" (3.526100031030033e-20 3.306727402050145e-21)
"Xopamp:6" (-5.596962996918213e-06 -4.275013002427549e-05)
"dd" (0.000000000000000e+00 0.000000000000000e+00)
"net7" (2.586296042802692e-04 1.975432283686789e-03)
"inn" (-5.000000000000000e-01 0.000000000000000e+00)
"inp" (5.000000000000000e-01 0.000000000000000e+00)
"out" (1.354339735927813e+05 -1.773133457286621e+04)
"Xopamp.net1" (2.403173924973197e-01 8.609298716988302e-02)
"Xopamp.net3" (-3.708232080990295e-01 4.598772645336689e-02)
"Xopamp.net2" (-4.546907723834336e+02 5.891839508900997e+01)
"Xopamp.net8" (-4.546432021218719e+02 5.928174714651699e+01)
"vdd:p" (-3.546224469974862e-02 4.597865558622379e-03)
"vin:p" (-1.595088046281069e-13 6.221843060202933e-13)
"vip:p" (-2.071104027466441e-11 -1.614600032164752e-10)
"freq" 3.162277660168384e+01
"Xopamp:1" (3.511948249827549e-02 -5.731876993137865e-03)
"Xopamp:2" (-3.511069857153697e-02 5.785170751793053e-03)
"Xopamp:3" (3.250442641049808e-11 2.013223592773482e-10)
"Xopamp:4" (2.503371212613893e-13 -7.982536171982797e-13)
"Xopamp:5" (-9.516442159872814e-21 -8.399598383721007e-20)
"Xopamp:6" (-8.783978093415233e-06 -5.329395749218580e-05)
"dd" (0.000000000000000e+00 0.000000000000000e+00)
"net7" (4.058997909424216e-04 2.462649373593223e-03)
"inn" (-5.000000000000000e-01 0.000000000000000e+00)
"inp" (5.000000000000000e-01 0.000000000000000e+00)
"out" (1.341121357133895e+05 -2.210456724724582e+04)
"Xopamp.net1" (2.467355032094417e-01 1.073268400498823e-01)
"Xopamp.net3" (-3.673949148858232e-01 5.733007885208820e-02)
"Xopamp.net2" (-4.502985171955515e+02 7.344994954073071e+01)
"Xopamp.net8" (-4.502238592333401e+02 7.390291818469566e+01)
"vdd:p" (-3.511948249827548e-02 5.731876993137866e-03)
"vin:p" (-2.503371212613893e-13 7.982536171982797e-13)
"vip:p" (-3.250442641049809e-11 -2.013223592773482e-10)
"freq" 3.981071705534978e+01
"Xopamp:1" (3.458973701432302e-02 -7.106087940213364e-03)
"Xopamp:2" (-3.457602746397736e-02 7.172158782440777e-03)
"Xopamp:3" (5.073132701176997e-11 2.496679090931582e-10)
"Xopamp:4" (3.907139967998754e-13 -1.034068757779694e-12)
"Xopamp:5" (3.342891085632787e-20 -1.248454619683899e-21)
"Xopamp:6" (-1.370962644948800e-05 -6.607108724353440e-05)
"dd" (0.000000000000000e+00 0.000000000000000e+00)
"net7" (6.335086387006972e-04 3.053064984621595e-03)
"inn" (-5.000000000000000e-01 0.000000000000000e+00)
"inp" (5.000000000000000e-01 0.000000000000000e+00)
"out" (1.320692100879279e+05 -2.740411180421215e+04)
"Xopamp.net1" (2.566548151637237e-01 1.330583137899294e-01)
"Xopamp.net3" (-3.620964226382284e-01 7.107490123655065e-02)
"Xopamp.net2" (-4.435102034437134e+02 9.105949084266288e+01)
"Xopamp.net8" (-4.433936809298695e+02 9.162105804236282e+01)
"vdd:p" (-3.458973701432302e-02 7.106087940213365e-03)
"vin:p" (-3.907139967998754e-13 1.034068757779693e-12)