HEADER
"PSFversion" "1.00"
"simulator" "spectre"
"version" "23.1.0.063"
"date" "3:06:55 PM, Thur Feb 6, 2025"
"design" ""
"analysis type" "ac"
"analysis name" "outac3"
"analysis description" "AC Analysis `outac3': freq = (100 mHz -> 100 GHz)"
"xVecSorted" "ascending"
"tolerance.relative" 0.00100000
"start" 0.100000
"stop" 1.00000e+11
"operating point producer" "outac3"
TYPE
"sweep" FLOAT DOUBLE PROP(
"key" "sweep"
)
"V" COMPLEX DOUBLE PROP(
"units" "V"
"key" "node"
"tolerance" 1.00000e-06
)
"I" COMPLEX DOUBLE PROP(
"units" "A"
"key" "branch"
"tolerance" 1.00000e-12
)
"MMF" COMPLEX DOUBLE PROP(
"units" "A*turn"
"key" "node"
"tolerance" 1.00000e-12
)
"Wb" COMPLEX DOUBLE PROP(
"units" "Wb"
"key" "node"
"tolerance" 1.00000e-09
)
"Temp" COMPLEX DOUBLE PROP(
"units" "C"
"key" "node"
"tolerance" 0.000100000
)
"Pwr" COMPLEX DOUBLE PROP(
"units" "W"
"key" "node"
"tolerance" 1.00000e-09
)
"U" COMPLEX DOUBLE PROP(
"units" ""
"key" "node"
"tolerance" 1.00000e-06
)
"V/Sec" COMPLEX DOUBLE PROP(
"units" "V/s"
"key" "node"
"tolerance" 0.000100000
)
"I/Sec" COMPLEX DOUBLE PROP(
"units" "A/s"
"key" "node"
"tolerance" 1.00000e-06
)
"1/Sec" COMPLEX DOUBLE PROP(
"units" "1/s"
"key" "node"
"tolerance" 0.000100000
)
"HOD" COMPLEX DOUBLE PROP(
"units" ""
"key" "node"
"tolerance" 0.0100000
)
"Q" COMPLEX DOUBLE PROP(
"units" "Coul"
"key" "node"
"tolerance" 1.00000e-15
)
SWEEP
"freq" "sweep" PROP(
"sweep_direction" 0
"units" "Hz"
"plot" 0
"grid" 3
)
TRACE
"Xopamp:1" "I"
"Xopamp:2" "I"
"Xopamp:3" "I"
"Xopamp:4" "I"
"Xopamp:5" "I"
"Xopamp:6" "I"
"net8" "V"
"net7" "V"
"inp" "V"
"inn" "V"
"out" "V"
"dd" "V"
"Xopamp.net1" "V"
"Xopamp.net3" "V"
"Xopamp.net2" "V"
"Xopamp.net8" "V"
"vdd:p" "I"
"vddac:p" "I"
"vip:p" "I"
VALUE
"freq" 1.000000000000000e-01
"Xopamp:1" (4.203457532442346e-10 2.925338714288618e-15)
"Xopamp:2" (-4.203459287281352e-10 -1.514072135746837e-15)
"Xopamp:3" (2.555052641714835e-23 -1.409650521706970e-15)
"Xopamp:4" (-3.084279360809839e-23 -1.408944663939000e-15)
"Xopamp:5" (-1.862638814542257e-35 -1.594200167756684e-31)
"Xopamp:6" (-9.906435522438127e-18 1.407328606573823e-15)
"net8" (0.000000000000000e+00 0.000000000000000e+00)
"net7" (-3.149694551369374e-19 8.497072404755144e-14)
"inp" (0.000000000000000e+00 0.000000000000000e+00)
"inn" (1.285992480055063e-06 3.737465808053225e-09)
"out" (1.285992480055063e-06 3.737465808053225e-09)
"dd" (1.000000000000000e+00 0.000000000000000e+00)
"Xopamp.net1" (9.999944266169519e-01 -3.535671418109320e-09)
"Xopamp.net3" (1.631888828111609e-03 1.887528915107169e-09)
"Xopamp.net2" (1.000490096637940e+00 3.164693012402017e-09)
"Xopamp.net8" (1.000490096637940e+00 -7.485482910923447e-09)
"vdd:p" (-4.203456082043073e-10 -2.925338714288546e-15)
"vddac:p" (-4.203456082043073e-10 -2.925338714288546e-15)
"vip:p" (-2.555052641714835e-23 1.409650521706970e-15)
"freq" 1.258925411794167e-01
"Xopamp:1" (4.203455311996442e-10 3.682783175076623e-15)
"Xopamp:2" (-4.203459287279971e-10 -1.906103886982149e-15)
"Xopamp:3" (4.049485538373916e-23 -1.774644863526050e-15)
"Xopamp:4" (-4.888253362597892e-23 -1.773756241244594e-15)
"Xopamp:5" (3.059924867645059e-35 -1.240019002765929e-30)
"Xopamp:6" (2.455825026753015e-18 1.771721816304695e-15)
"net8" (0.000000000000000e+00 0.000000000000000e+00)
"net7" (-4.991929452799870e-19 1.069718037620125e-13)
"inp" (0.000000000000000e+00 0.000000000000000e+00)
"inn" (1.285992480173456e-06 4.705190681472388e-09)
"out" (1.285992480173456e-06 4.705190681472388e-09)
"dd" (1.000000000000000e+00 0.000000000000000e+00)
"Xopamp.net1" (9.999944266169513e-01 -4.451146596014391e-09)
"Xopamp.net3" (1.631888828111472e-03 2.376258116726161e-09)
"Xopamp.net2" (1.000490096638079e+00 3.984112454629788e-09)
"Xopamp.net8" (1.000490096638078e+00 -9.423664655324896e-09)
"vdd:p" (-4.203453861597250e-10 -3.682783175076530e-15)
"vddac:p" (-4.203453861597250e-10 -3.682783175076530e-15)
"vip:p" (-4.049485538373916e-23 1.774644863526050e-15)
"freq" 1.584893192461114e-01
"Xopamp:1" (4.203455311996672e-10 4.636349346512843e-15)
"Xopamp:2" (-4.203459287278301e-10 -2.399642620840851e-15)
"Xopamp:3" (6.418002062684054e-23 -2.234145515602922e-15)
"Xopamp:4" (-7.747359477406490e-23 -2.233026806431316e-15)
"Xopamp:5" (-9.642828689606702e-35 1.569408061096213e-30)
"Xopamp:6" (1.916630600450392e-18 2.230465595478071e-15)
"net8" (0.000000000000000e+00 0.000000000000000e+00)
"net7" (-7.911675006986528e-19 1.346695221014747e-13)
"inp" (0.000000000000000e+00 0.000000000000000e+00)
"inn" (1.285992480478319e-06 5.923484116241505e-09)
"out" (1.285992480478319e-06 5.923484116241505e-09)
"dd" (1.000000000000000e+00 0.000000000000000e+00)
"Xopamp.net1" (9.999944266169510e-01 -5.603661561344314e-09)
"Xopamp.net3" (1.631888828111339e-03 2.991531728127485e-09)
"Xopamp.net2" (1.000490096638073e+00 5.015700412341745e-09)
"Xopamp.net8" (1.000490096638072e+00 -1.186369090705227e-08)
"vdd:p" (-4.203453861597611e-10 -4.636349346512915e-15)
"vddac:p" (-4.203453861597611e-10 -4.636349346512915e-15)
"vip:p" (-6.418002062684054e-23 2.234145515602922e-15)
"freq" 1.995262314968880e-01
"Xopamp:1" (4.203455311997037e-10 5.836818087822596e-15)
"Xopamp:2" (-4.203459287276518e-10 -3.020971074600388e-15)
"Xopamp:3" (1.017184777810754e-22 -2.812622563238567e-15)
"Xopamp:4" (-1.227873729528597e-22 -2.811214191833977e-15)
"Xopamp:5" (-6.327625823432020e-35 -1.729194631573435e-30)
"Xopamp:6" (3.619794184591324e-18 2.807989739374530e-15)
"net8" (0.000000000000000e+00 0.000000000000000e+00)
"net7" (-1.253915985953519e-18 1.695388835677880e-13)
"inp" (0.000000000000000e+00 0.000000000000000e+00)
"inn" (1.285992480458155e-06 7.457224680293663e-09)
"out" (1.285992480458155e-06 7.457224680293663e-09)
"dd" (1.000000000000000e+00 0.000000000000000e+00)
"Xopamp.net1" (9.999944266169520e-01 -7.054591938668342e-09)
"Xopamp.net3" (1.631888828111967e-03 3.766115312727912e-09)
"Xopamp.net2" (1.000490096638092e+00 6.314392706174488e-09)
"Xopamp.net8" (1.000490096638091e+00 -1.493550196142891e-08)
"vdd:p" (-4.203453861598182e-10 -5.836818087822725e-15)
"vddac:p" (-4.203453861598182e-10 -5.836818087822725e-15)
"vip:p" (-1.017184777810754e-22 2.812622563238567e-15)
"freq" 2.511886431509581e-01
"Xopamp:1" (4.203455311997615e-10 7.348118458824625e-15)
"Xopamp:2" (-4.203459287271108e-10 -3.803177254111257e-15)
"Xopamp:3" (1.612129229889189e-22 -3.540882018646529e-15)
"Xopamp:4" (-1.946048715131721e-22 -3.539108984096201e-15)
"Xopamp:5" (-3.127390092981974e-35 8.788920479957723e-30)
"Xopamp:6" (-2.763121552716325e-19 3.535049793579737e-15)
"net8" (0.000000000000000e+00 0.000000000000000e+00)
"net7" (-1.987322910056806e-18 2.134368088106993e-13)
"inp" (0.000000000000000e+00 0.000000000000000e+00)
"inn" (1.285992480363043e-06 9.388089651483496e-09)
"out" (1.285992480363043e-06 9.388089651483496e-09)
"dd" (1.000000000000000e+00 0.000000000000000e+00)
"Xopamp.net1" (9.999944266169523e-01 -8.881205061426958e-09)
"Xopamp.net3" (1.631888828112023e-03 4.741258270943721e-09)
"Xopamp.net2" (1.000490096638048e+00 7.949349439593956e-09)
"Xopamp.net8" (1.000490096638047e+00 -1.880268295540016e-08)
"vdd:p" (-4.203453861599086e-10 -7.348118458824549e-15)
"vddac:p" (-4.203453861599086e-10 -7.348118458824549e-15)
"vip:p" (-1.612129229889189e-22 3.540882018646529e-15)
"freq" 3.162277660168380e-01
"Xopamp:1" (4.203455311998532e-10 9.250733186273690e-15)
"Xopamp:2" (-4.203459287260649e-10 -4.787916490756857e-15)
"Xopamp:3" (2.555052641753813e-22 -4.457706353439259e-15)
"Xopamp:4" (-3.084279360811409e-22 -4.455474235187708e-15)
"Xopamp:5" (9.260324090587202e-35 -7.736717144135754e-30)
"Xopamp:6" (2.665784048518632e-18 4.450363890834279e-15)
"net8" (0.000000000000000e+00 0.000000000000000e+00)
"net7" (-3.149694551370218e-18 2.687010224239222e-13)
"inp" (0.000000000000000e+00 0.000000000000000e+00)
"inn" (1.285992480402553e-06 1.181890463045382e-08)
"out" (1.285992480402553e-06 1.181890463045382e-08)
"dd" (1.000000000000000e+00 0.000000000000000e+00)
"Xopamp.net1" (9.999944266169506e-01 -1.118077473918868e-08)
"Xopamp.net3" (1.631888828111189e-03 5.968890521165977e-09)
"Xopamp.net2" (1.000490096638081e+00 1.000763801529038e-08)
"Xopamp.net8" (1.000490096638080e+00 -2.367117538390958e-08)
"vdd:p" (-4.203453861600520e-10 -9.250733186273674e-15)
"vddac:p" (-4.203453861600520e-10 -9.250733186273674e-15)
"vip:p" (-2.555052641753813e-22 4.457706353439259e-15)
"freq" 3.981071705534974e-01
"Xopamp:1" (4.203457532446034e-10 1.164598301917841e-14)
"Xopamp:2" (-4.203459287248542e-10 -6.027629739763864e-15)
"Xopamp:3" (4.049485538338841e-22 -5.611919806660508e-15)
"Xopamp:4" (-4.888253362595793e-22 -5.609109736272052e-15)
"Xopamp:5" (-1.792232844426807e-34 -5.218526310384657e-30)
"Xopamp:6" (-5.791363749065751e-18 5.602676259872435e-15)
"net8" (0.000000000000000e+00 0.000000000000000e+00)
"net7" (-4.991929452799846e-18 3.382745453046604e-13)
"inp" (0.000000000000000e+00 0.000000000000000e+00)
"inn" (1.285992480076131e-06 1.487911937885084e-08)
"out" (1.285992480076131e-06 1.487911937885084e-08)
"dd" (1.000000000000000e+00 0.000000000000000e+00)
"Xopamp.net1" (9.999944266169525e-01 -1.407576144270303e-08)
"Xopamp.net3" (1.631888828111993e-03 7.514387957318731e-09)
"Xopamp.net2" (1.000490096637987e+00 1.259886981022626e-08)
"Xopamp.net8" (1.000490096637985e+00 -2.980024421709646e-08)
"vdd:p" (-4.203456082048842e-10 -1.164598301917855e-14)
"vddac:p" (-4.203456082048842e-10 -1.164598301917855e-14)
"vip:p" (-4.049485538338841e-22 5.611919806660509e-15)
"freq" 5.011872336272725e-01
"Xopamp:1" (4.203457532448336e-10 1.466142401366536e-14)
"Xopamp:2" (-4.203459287224476e-10 -7.588336252272964e-15)
"Xopamp:3" (6.418002062644370e-22 -7.064988453555850e-15)
"Xopamp:4" (-7.747359477406966e-22 -7.061450784534906e-15)
"Xopamp:5" (-1.581739229159220e-34 -3.110826896158950e-29)
"Xopamp:6" (-6.057911648256279e-18 7.053351471816005e-15)
"net8" (0.000000000000000e+00 0.000000000000000e+00)
"net7" (-7.911675006986754e-18 4.258624212468914e-13)
"inp" (0.000000000000000e+00 0.000000000000000e+00)
"inn" (1.285992479936259e-06 1.873170149115374e-08)
"out" (1.285992479936259e-06 1.873170149115374e-08)
"dd" (1.000000000000000e+00 0.000000000000000e+00)
"Xopamp.net1" (9.999944266169507e-01 -1.772033377057913e-08)
"Xopamp.net3" (1.631888828110993e-03 9.460053953542192e-09)
"Xopamp.net2" (1.000490096637984e+00 1.586103736347833e-08)
"Xopamp.net8" (1.000490096637981e+00 -3.751628472307659e-08)
"vdd:p" (-4.203456082052443e-10 -1.466142401366527e-14)
"vddac:p" (-4.203456082052443e-10 -1.466142401366527e-14)
"vip:p" (-6.418002062644370e-22 7.064988453555850e-15)
"freq" 6.309573444801935e-01
"Xopamp:1" (4.203457532451986e-10 1.845763921747774e-14)
"Xopamp:2" (-4.203459287193261e-10 -9.553149341226786e-15)
"Xopamp:3" (1.017184777833568e-21 -8.894293498214068e-15)
"Xopamp:4" (-1.227873729528500e-21 -8.889839836784935e-15)
"Xopamp:5" (4.378104832408609e-34 2.326269028559963e-29)
"Xopamp:6" (-4.397488579784055e-18 8.879643452773018e-15)
"net8" (0.000000000000000e+00 0.000000000000000e+00)
"net7" (-1.253915985953949e-17 5.361290240362698e-13)
"inp" (0.000000000000000e+00 0.000000000000000e+00)
"inn" (1.285992479902454e-06 2.358181501335457e-08)
"out" (1.285992479902454e-06 2.358181501335457e-08)
"dd" (1.000000000000000e+00 0.000000000000000e+00)
"Xopamp.net1" (9.999944266169524e-01 -2.230857848924771e-08)
"Xopamp.net3" (1.631888828111912e-03 1.190950231906434e-08)
"Xopamp.net2" (1.000490096638003e+00 1.996786299481077e-08)
"Xopamp.net8" (1.000490096637999e+00 -4.723020419347644e-08)
"vdd:p" (-4.203456082058151e-10 -1.845763921747785e-14)
"vddac:p" (-4.203456082058151e-10 -1.845763921747785e-14)
"vip:p" (-1.017184777833568e-21 8.894293498214068e-15)
"freq" 7.943282347242818e-01
"Xopamp:1" (4.203455312011720e-10 2.323679119634819e-14)
"Xopamp:2" (-4.203459287139782e-10 -1.202670246833509e-14)
"Xopamp:3" (1.612129229845639e-21 -1.119725210485818e-14)
"Xopamp:4" (-1.946048715131809e-21 -1.119164527730867e-14)
"Xopamp:5" (8.698561768813962e-34 -2.569497388496150e-29)
"Xopamp:6" (2.469742116293934e-18 1.117880864691887e-14)
"net8" (0.000000000000000e+00 0.000000000000000e+00)
"net7" (-1.987322910056582e-17 6.749464523597504e-13)
"inp" (0.000000000000000e+00 0.000000000000000e+00)
"inn" (1.285992479790417e-06 2.968774617654244e-08)
"out" (1.285992479790417e-06 2.968774617654244e-08)
"dd" (1.000000000000000e+00 0.000000000000000e+00)
"Xopamp.net1" (9.999944266169521e-01 -2.808483636112082e-08)
"Xopamp.net3" (1.631888828111871e-03 1.499317511129042e-08)
"Xopamp.net2" (1.000490096638081e+00 2.513805014178559e-08)
"Xopamp.net8" (1.000490096638073e+00 -5.945930426500736e-08)
"vdd:p" (-4.203453861621147e-10 -2.323679119634850e-14)
"vddac:p" (-4.203453861621147e-10 -2.323679119634850e-14)
"vip:p" (-1.612129229845639e-21 1.119725210485818e-14)
"freq" 1.000000000000000e+00
"Xopamp:1" (4.203455312020886e-10 2.925338682164281e-14)
"Xopamp:2" (-4.203459287052802e-10 -1.514072135747190e-14)
"Xopamp:3" (2.555052641765303e-21 -1.409650521707147e-14)
"Xopamp:4" (-3.084279360811097e-21 -1.408944663938999e-14)
"Xopamp:5" (2.413924118174623e-33 -8.144604667523915e-29)
"Xopamp:6" (1.478409699515177e-18 1.407328638718685e-14)
"net8" (0.000000000000000e+00 0.000000000000000e+00)
"net7" (-3.149694551370184e-17 8.497072404757241e-13)
"inp" (0.000000000000000e+00 0.000000000000000e+00)
"inn" (1.285992479514219e-06 3.737465808054338e-08)
"out" (1.285992479514219e-06 3.737465808054338e-08)
"dd" (1.000000000000000e+00 0.000000000000000e+00)
"Xopamp.net1" (9.999944266169510e-01 -3.535671418110822e-08)
"Xopamp.net3" (1.631888828111040e-03 1.887528915107485e-08)
"Xopamp.net2" (1.000490096638071e+00 3.164693012762371e-08)
"Xopamp.net8" (1.000490096638059e+00 -7.485482910564373e-08)
"vdd:p" (-4.203453861635486e-10 -2.925338682164327e-14)
"vddac:p" (-4.203453861635486e-10 -2.925338682164327e-14)
"vip:p" (-2.555052641765303e-21 1.409650521707147e-14)
"freq" 1.258925411794168e+00
"Xopamp:1" (4.203455312035415e-10 3.682783198496105e-14)
"Xopamp:2" (-4.203459286918183e-10 -1.906103886981832e-14)
"Xopamp:3" (4.049485538327503e-21 -1.774644863526122e-14)
"Xopamp:4" (-4.888253362596467e-21 -1.773756241244610e-14)
"Xopamp:5" (8.061352913527085e-34 1.658711544457954e-29)
"Xopamp:6" (5.776887395759440e-18 1.771721792555726e-14)
"net8" (0.000000000000000e+00 0.000000000000000e+00)
"net7" (-4.991929452799060e-17 1.069718037620628e-12)
"inp" (0.000000000000000e+00 0.000000000000000e+00)
"inn" (1.285992478935079e-06 4.705190681471473e-08)
"out" (1.285992478935079e-06 4.705190681471473e-08)
"dd" (1.000000000000000e+00 0.000000000000000e+00)
"Xopamp.net1" (9.999944266169514e-01 -4.451146596012771e-08)
"Xopamp.net3" (1.631888828111123e-03 2.376258116725943e-08)
"Xopamp.net2" (1.000490096638121e+00 3.984112454366429e-08)
"Xopamp.net8" (1.000490096638103e+00 -9.423664655588604e-08)
"vdd:p" (-4.203453861658209e-10 -3.682783198496074e-14)
"vddac:p" (-4.203453861658209e-10 -3.682783198496074e-14)
"vip:p" (-4.049485538327503e-21 1.774644863526122e-14)
"freq" 1.584893192461114e+00
"Xopamp:1" (4.203455312058440e-10 4.636349362070945e-14)
"Xopamp:2" (-4.203459286703144e-10 -2.399642620840808e-14)
"Xopamp:3" (6.418002062645155e-21 -2.234145515603075e-14)
"Xopamp:4" (-7.747359477408545e-21 -2.233026806431338e-14)
"Xopamp:5" (-3.132935992677207e-33 -3.589922912526224e-29)
"Xopamp:6" (8.096303177566301e-18 2.230465579739900e-14)
"net8" (0.000000000000000e+00 0.000000000000000e+00)
"net7" (-7.911675006986746e-17 1.346695221015172e-12)
"inp" (0.000000000000000e+00 0.000000000000000e+00)
"inn" (1.285992478375421e-06 5.923484116242090e-08)
"out" (1.285992478375421e-06 5.923484116242090e-08)
"dd" (1.000000000000000e+00 0.000000000000000e+00)
"Xopamp.net1" (9.999944266169499e-01 -5.603661561345181e-08)
"Xopamp.net3" (1.631888828110242e-03 2.991531728127095e-08)
"Xopamp.net2" (1.000490096638151e+00 5.015700412168391e-08)
"Xopamp.net8" (1.000490096638121e+00 -1.186369090722648e-07)
"vdd:p" (-4.203453861694224e-10 -4.636349362071043e-14)
"vddac:p" (-4.203453861694224e-10 -4.636349362071043e-14)
"vip:p" (-6.418002062645155e-21 2.234145515603075e-14)
"freq" 1.995262314968881e+00
"Xopamp:1" (4.203455312094933e-10 5.836818020570782e-14)
"Xopamp:2" (-4.203459286365151e-10 -3.020971074600966e-14)
"Xopamp:3" (1.017184777831829e-20 -2.812622563238443e-14)
"Xopamp:4" (-1.227873729528787e-20 -2.811214191834028e-14)
"Xopamp:5" (5.823011100837841e-33 -4.892604180113187e-30)
"Xopamp:6" (-5.902817559518401e-19 2.807989807244255e-14)
"net8" (0.000000000000000e+00 0.000000000000000e+00)
"net7" (-1.253915985953846e-16 1.695388835678797e-12)
"inp" (0.000000000000000e+00 0.000000000000000e+00)
"inn" (1.285992477030504e-06 7.457224680295525e-08)
"out" (1.285992477030504e-06 7.457224680295525e-08)
"dd" (1.000000000000000e+00 0.000000000000000e+00)
"Xopamp.net1" (9.999944266169516e-01 -7.054591938666967e-08)
"Xopamp.net3" (1.631888828110401e-03 3.766115312728987e-08)
"Xopamp.net2" (1.000490096638059e+00 6.314392706925335e-08)
"Xopamp.net8" (1.000490096638011e+00 -1.493550196067644e-07)
"vdd:p" (-4.203453861751302e-10 -5.836818020570855e-14)
"vddac:p" (-4.203453861751302e-10 -5.836818020570855e-14)
"vip:p" (-1.017184777831829e-20 2.812622563238443e-14)
"freq" 2.511886431509582e+00
"Xopamp:1" (4.203457532598820e-10 7.348118566519787e-14)
"Xopamp:2" (-4.203459285825332e-10 -3.803177254109260e-14)
"Xopamp:3" (1.612129229845890e-20 -3.540882018646313e-14)
"Xopamp:4" (-1.946048715132592e-20 -3.539108984096275e-14)
"Xopamp:5" (-1.325268494164371e-32 1.811841667789114e-29)
"Xopamp:6" (-5.577230437821146e-18 3.535049688103243e-14)
"net8" (0.000000000000000e+00 0.000000000000000e+00)
"net7" (-1.987322910055977e-16 2.134368088108151e-12)
"inp" (0.000000000000000e+00 0.000000000000000e+00)
"inn" (1.285992475071072e-06 9.388089651481937e-08)
"out" (1.285992475071072e-06 9.388089651481937e-08)
"dd" (1.000000000000000e+00 0.000000000000000e+00)
"Xopamp.net1" (9.999944266169500e-01 -8.881205061428858e-08)
"Xopamp.net3" (1.631888828108872e-03 4.741258270939115e-08)
"Xopamp.net2" (1.000490096638011e+00 7.949349438391566e-08)
"Xopamp.net8" (1.000490096637936e+00 -1.880268295659972e-07)
"vdd:p" (-4.203456082287814e-10 -7.348118566519918e-14)
"vddac:p" (-4.203456082287814e-10 -7.348118566519918e-14)
"vip:p" (-1.612129229845890e-20 3.540882018646313e-14)
"freq" 3.162277660168382e+00
"Xopamp:1" (4.203455312244437e-10 9.250733225515329e-14)
"Xopamp:2" (-4.203459284974278e-10 -4.787916490755445e-14)
"Xopamp:3" (2.555052641734278e-20 -4.457706353439288e-14)
"Xopamp:4" (-3.084279360810238e-20 -4.455474235187942e-14)
"Xopamp:5" (2.917609304835565e-33 -2.224225914527731e-28)
"Xopamp:6" (2.183740750855734e-18 4.450363852686207e-14)
"net8" (0.000000000000000e+00 0.000000000000000e+00)
"net7" (-3.149694551369625e-16 2.687010224244740e-12)
"inp" (0.000000000000000e+00 0.000000000000000e+00)
"inn" (1.285992471973466e-06 1.181890463045091e-07)
"out" (1.285992471973466e-06 1.181890463045091e-07)
"dd" (1.000000000000000e+00 0.000000000000000e+00)
"Xopamp.net1" (9.999944266169507e-01 -1.118077473918568e-07)
"Xopamp.net3" (1.631888828108191e-03 5.968890521165643e-08)
"Xopamp.net2" (1.000490096638111e+00 1.000763801484884e-07)
"Xopamp.net8" (1.000490096637992e+00 -2.367117538434846e-07)
"vdd:p" (-4.203453861985141e-10 -9.250733225515506e-14)
"vddac:p" (-4.203453861985141e-10 -9.250733225515506e-14)
"vip:p" (-2.555052641734278e-20 4.457706353439289e-14)
"freq" 3.981071705534976e+00
"Xopamp:1" (4.203455312389718e-10 1.164598302582331e-13)
"Xopamp:2" (-4.203459283624525e-10 -6.027629739761342e-14)
"Xopamp:3" (4.049485538333550e-20 -5.611919806661221e-14)
"Xopamp:4" (-4.888253362595815e-20 -5.609109736272435e-14)
"Xopamp:5" (-2.259546996094109e-32 -1.138566965054912e-28)
"Xopamp:6" (4.626556242464270e-18 5.602676254579974e-14)
"net8" (0.000000000000000e+00 0.000000000000000e+00)
"net7" (-4.991929452798683e-16 3.382745453057471e-12)
"inp" (0.000000000000000e+00 0.000000000000000e+00)
"inn" (1.285992467356863e-06 1.487911937884828e-07)
"out" (1.285992467356863e-06 1.487911937884828e-07)
"dd" (1.000000000000000e+00 0.000000000000000e+00)
"Xopamp.net1" (9.999944266169505e-01 -1.407576144270469e-07)
"Xopamp.net3" (1.631888828106459e-03 7.514387957316012e-08)
"Xopamp.net2" (1.000490096638160e+00 1.259886981015257e-07)
"Xopamp.net8" (1.000490096637970e+00 -2.980024421717008e-07)
"vdd:p" (-4.203453862212375e-10 -1.164598302582336e-13)
"vddac:p" (-4.203453862212375e-10 -1.164598302582336e-13)
"vip:p" (-4.049485538333550e-20 5.611919806661222e-14)
"freq" 5.011872336272727e+00
"Xopamp:1" (4.203455312619972e-10 1.466142396811324e-13)
"Xopamp:2" (-4.203459281482734e-10 -7.588336252270360e-14)
"Xopamp:3" (6.418002062679813e-20 -7.064988453557672e-14)
"Xopamp:4" (-7.747359477406517e-20 -7.061450784535698e-14)
"Xopamp:5" (-2.371730299464834e-33 -3.967246275170418e-29)
"Xopamp:6" (1.515375985087335e-17 7.053351518070345e-14)
"net8" (0.000000000000000e+00 0.000000000000000e+00)
"net7" (-7.911675006986242e-16 4.258624212492598e-12)
"inp" (0.000000000000000e+00 0.000000000000000e+00)
"inn" (1.285992459914488e-06 1.873170149115233e-07)
"out" (1.285992459914488e-06 1.873170149115233e-07)
"dd" (1.000000000000000e+00 0.000000000000000e+00)
"Xopamp.net1" (9.999944266169483e-01 -1.772033377058311e-07)
"Xopamp.net3" (1.631888828102838e-03 9.460053953541906e-08)
"Xopamp.net2" (1.000490096638311e+00 1.586103736398912e-07)
"Xopamp.net8" (1.000490096638011e+00 -3.751628472256847e-07)
"vdd:p" (-4.203453862572518e-10 -1.466142396811334e-13)
"vddac:p" (-4.203453862572518e-10 -1.466142396811334e-13)
"vip:p" (-6.418002062679814e-20 7.064988453557672e-14)
"freq" 6.309573444801939e+00
"Xopamp:1" (4.203455312984902e-10 1.845763934207371e-13)
"Xopamp:2" (-4.203459278091661e-10 -9.553149341220510e-14)
"Xopamp:3" (1.017184777820999e-19 -8.894293498216991e-14)
"Xopamp:4" (-1.227873729528691e-19 -8.889839836786495e-14)
"Xopamp:5" (6.038582658846439e-32 7.366622525569430e-30)
"Xopamp:6" (2.230327370472343e-17 8.879643327700078e-14)
"net8" (0.000000000000000e+00 0.000000000000000e+00)
"net7" (-1.253915985953705e-15 5.361290240407901e-12)
"inp" (0.000000000000000e+00 0.000000000000000e+00)
"inn" (1.285992447976172e-06 2.358181501335237e-07)
"out" (1.285992447976172e-06 2.358181501335237e-07)
"dd" (1.000000000000000e+00 0.000000000000000e+00)
"Xopamp.net1" (9.999944266169479e-01 -2.230857848925072e-07)
"Xopamp.net3" (1.631888828098578e-03 1.190950231905955e-07)
"Xopamp.net2" (1.000490096638443e+00 1.996786299341680e-07)
"Xopamp.net8" (1.000490096637968e+00 -4.723020419487052e-07)
"vdd:p" (-4.203453863143306e-10 -1.845763934207362e-13)
"vddac:p" (-4.203453863143306e-10 -1.845763934207362e-13)
"vip:p" (-1.017184777820999e-19 8.894293498216991e-14)
"freq" 7.943282347242823e+00
"Xopamp:1" (4.203455313563277e-10 2.323679094652667e-13)
"Xopamp:2" (-4.203459272714026e-10 -1.202670246832641e-13)
"Xopamp:3" (1.612129229876410e-19 -1.119725210486290e-13)
"Xopamp:4" (-1.946048715132297e-19 -1.119164527731178e-13)
"Xopamp:5" (-2.847330611830129e-32 -8.628092638543878e-29)
"Xopamp:6" (3.589804809719614e-17 1.117880889859076e-13)
"net8" (0.000000000000000e+00 0.000000000000000e+00)
"net7" (-1.987322910056630e-15 6.749464523686519e-12)
"inp" (0.000000000000000e+00 0.000000000000000e+00)
"inn" (1.285992429054322e-06 2.968774617654504e-07)
"out" (1.285992429054322e-06 2.968774617654504e-07)
"dd" (1.000000000000000e+00 0.000000000000000e+00)
"Xopamp.net1" (9.999944266169452e-01 -2.808483636113065e-07)
"Xopamp.net3" (1.631888828090605e-03 1.499317511128910e-07)
"Xopamp.net2" (1.000490096638679e+00 2.513805014458170e-07)
"Xopamp.net8" (1.000490096637925e+00 -5.945930426220301e-07)
"vdd:p" (-4.203453864047943e-10 -2.323679094652667e-13)
"vddac:p" (-4.203453864047943e-10 -2.323679094652667e-13)
"vip:p" (-1.612129229876410e-19 1.119725210486290e-13)
"freq" 1.000000000000001e+01
"Xopamp:1" (4.203455314479938e-10 2.925338682441966e-13)
"Xopamp:2" (-4.203459264193589e-10 -1.514072135745372e-13)
"Xopamp:3" (2.555052641765133e-19 -1.409650521707997e-13)
"Xopamp:4" (-3.084279360809280e-19 -1.408944663939642e-13)
"Xopamp:5" (-4.158085806217354e-31 9.298307112349390e-29)
"Xopamp:6" (4.747751833900763e-17 1.407328637590351e-13)
"net8" (0.000000000000000e+00 0.000000000000000e+00)
"net7" (-3.149694551369926e-15 8.497072404943063e-12)
"inp" (0.000000000000000e+00 0.000000000000000e+00)
"inn" (1.285992399088265e-06 3.737465808053509e-07)
"out" (1.285992399088265e-06 3.737465808053509e-07)
"dd" (1.000000000000000e+00 0.000000000000000e+00)
"Xopamp.net1" (9.999944266169428e-01 -3.535671418109429e-07)
"Xopamp.net3" (1.631888828078932e-03 1.887528915108003e-07)
"Xopamp.net2" (1.000490096638941e+00 3.164693012756955e-07)
"Xopamp.net8" (1.000490096637746e+00 -7.485482910567315e-07)
"vdd:p" (-4.203453865481696e-10 -2.925338682441952e-13)
"vddac:p" (-4.203453865481696e-10 -2.925338682441952e-13)
"vip:p" (-2.555052641765133e-19 1.409650521707997e-13)
"freq" 1.258925411794169e+01
"Xopamp:1" (4.203455315932748e-10 3.682783191584172e-13)
"Xopamp:2" (-4.203459250684197e-10 -1.906103886977650e-13)
"Xopamp:3" (4.049485538339075e-19 -1.774644863527608e-13)
"Xopamp:4" (-4.888253362596380e-19 -1.773756241245863e-13)
"Xopamp:5" (4.003682037149275e-32 7.321945410233153e-28)
"Xopamp:6" (6.927267133812155e-17 1.771721798474139e-13)
"net8" (0.000000000000000e+00 0.000000000000000e+00)
"net7" (-4.991929452797254e-15 1.069718037656535e-11)
"inp" (0.000000000000000e+00 0.000000000000000e+00)
"inn" (1.285992351419644e-06 4.705190681470253e-07)
"out" (1.285992351419644e-06 4.705190681470253e-07)
"dd" (1.000000000000000e+00 0.000000000000000e+00)
"Xopamp.net1" (9.999944266169355e-01 -4.451146596013469e-07)
"Xopamp.net3" (1.631888828058506e-03 2.376258116724724e-07)
"Xopamp.net2" (1.000490096639394e+00 3.984112454442336e-07)
"Xopamp.net8" (1.000490096637501e+00 -9.423664655506347e-07)
"vdd:p" (-4.203453867754041e-10 -3.682783191584275e-13)
"vddac:p" (-4.203453867754041e-10 -3.682783191584275e-13)
"vip:p" (-4.049485538339075e-19 1.774644863527608e-13)
"freq" 1.584893192461115e+01
"Xopamp:1" (4.203455318235298e-10 4.636349375284159e-13)
"Xopamp:2" (-4.203459229279593e-10 -2.399642620832839e-13)
"Xopamp:3" (6.418002062610644e-19 -2.234145515606316e-13)
"Xopamp:4" (-7.747359477399032e-19 -2.233026806433885e-13)
"Xopamp:5" (6.461567844068927e-31 7.258077671862146e-28)
"Xopamp:6" (1.186206276277218e-16 2.230465567308490e-13)
"net8" (0.000000000000000e+00 0.000000000000000e+00)
"net7" (-7.911675006983012e-15 1.346695221087881e-11)
"inp" (0.000000000000000e+00 0.000000000000000e+00)
"inn" (1.285992275840632e-06 5.923484116238209e-07)
"out" (1.285992275840632e-06 5.923484116238209e-07)
"dd" (1.000000000000000e+00 0.000000000000000e+00)
"Xopamp.net1" (9.999944266169282e-01 -5.603661561338432e-07)
"Xopamp.net3" (1.631888828028626e-03 2.991531728127255e-07)
"Xopamp.net2" (1.000490096640278e+00 5.015700412010505e-07)
"Xopamp.net8" (1.000490096637277e+00 -1.186369090737356e-06)
"vdd:p" (-4.203453871355467e-10 -4.636349375284131e-13)
"vddac:p" (-4.203453871355467e-10 -4.636349375284131e-13)
"vip:p" (-6.418002062610644e-19 2.234145515606316e-13)
"freq" 1.995262314968882e+01
"Xopamp:1" (4.203453101438543e-10 5.836818021291395e-13)
"Xopamp:2" (-4.203459195353980e-10 -3.020971074586129e-13)
"Xopamp:3" (1.017184777831073e-18 -2.812622563245525e-13)
"Xopamp:4" (-1.227873729528179e-18 -2.811214191839062e-13)
"Xopamp:5" (7.271191458988739e-31 -2.147368229835501e-27)
"Xopamp:6" (1.951889641280394e-16 2.807989805152829e-13)
"net8" (0.000000000000000e+00 0.000000000000000e+00)
"net7" (-1.253915985953409e-14 1.695388835823550e-11)
"inp" (0.000000000000000e+00 0.000000000000000e+00)
"inn" (1.285992156674211e-06 7.457224680293035e-07)
"out" (1.285992156674211e-06 7.457224680293035e-07)
"dd" (1.000000000000000e+00 0.000000000000000e+00)
"Xopamp.net1" (9.999944266169141e-01 -7.054591938661853e-07)
"Xopamp.net3" (1.631888827980027e-03 3.766115312728273e-07)
"Xopamp.net2" (1.000490096641661e+00 6.314392706903812e-07)
"Xopamp.net8" (1.000490096636905e+00 -1.493550196068130e-06)
"vdd:p" (-4.203451656617293e-10 -5.836818021291472e-13)
"vddac:p" (-4.203451656617293e-10 -5.836818021291472e-13)
"vip:p" (-1.017184777831073e-18 2.812622563245525e-13)
"freq" 2.511886431509583e+01
"Xopamp:1" (4.203451996999232e-10 7.348118510187659e-13)
"Xopamp:2" (-4.203459153218769e-10 -3.803177254540813e-13)
"Xopamp:3" (1.612129229866950e-18 -3.540882018702484e-13)
"Xopamp:4" (-1.946048715131697e-18 -3.539108984043317e-13)
"Xopamp:5" (8.702958624617976e-31 -5.369604378345673e-28)
"Xopamp:6" (3.015463531913285e-16 3.535049744492614e-13)
"net8" (0.000000000000000e+00 0.000000000000000e+00)
"net7" (-1.987322910051524e-14 2.134368094750642e-11)
"inp" (0.000000000000000e+00 0.000000000000000e+00)
"inn" (1.285994980490098e-06 9.388089651481388e-07)
"out" (1.285994980490098e-06 9.388089651481388e-07)
"dd" (1.000000000000000e+00 0.000000000000000e+00)
"Xopamp.net1" (9.999944266140657e-01 -8.881205061408992e-07)
"Xopamp.net3" (1.631888829401584e-03 4.741258270939215e-07)
"Xopamp.net2" (1.000490096643675e+00 7.949349438993610e-07)
"Xopamp.net8" (1.000490096636137e+00 -1.880268295588261e-06)
"vdd:p" (-4.203451665663637e-10 -7.348118510187634e-13)
"vddac:p" (-4.203451665663637e-10 -7.348118510187634e-13)
"vip:p" (-1.612129229866950e-18 3.540882018702484e-13)
"freq" 3.162277660168384e+01
"Xopamp:1" (4.203449785719796e-10 9.250733115931569e-13)
"Xopamp:2" (-4.203459067997047e-10 -4.787916491274941e-13)
"Xopamp:3" (2.555052641784315e-18 -4.457706353519016e-13)
"Xopamp:4" (-3.084279360806786e-18 -4.455474235128655e-13)
"Xopamp:5" (-1.764059670301604e-31 2.044623687909977e-27)
"Xopamp:6" (4.631582324033115e-16 4.450363962334071e-13)
"net8" (0.000000000000000e+00 0.000000000000000e+00)
"net7" (-3.149694551360321e-14 2.687010232817181e-11)
"inp" (0.000000000000000e+00 0.000000000000000e+00)
"inn" (1.285994679797254e-06 1.181890463044258e-06)
"out" (1.285994679797254e-06 1.181890463044258e-06)
"dd" (1.000000000000000e+00 0.000000000000000e+00)