HEADER
"PSFversion" "1.00"
"simulator" "spectre"
"version" "23.1.0.063"
"date" "12:30:37 PM, Fri Feb 7, 2025"
"design" ""
"analysis type" "dc"
"analysis name" "outdc2"
"analysis description" "DC Analysis `outdc2': v_in = (0 -> 3.3)"
"xVecSorted" "unsorted"
"tolerance.relative" 0.00100000
"reltol" 0.00100000
"abstol(V)" 1.00000e-06
"abstol(I)" 1.00000e-12
"temp" 27.0000
"tnom" 27.0000
"tempeffects" "all"
"gmindc" 1.00000e-12
"rabsshort" 0.00100000
TYPE
"sweep" FLOAT DOUBLE PROP(
"key" "sweep"
)
"LogicV" FLOAT DOUBLE PROP(
"key" "node"
)
"V" FLOAT DOUBLE PROP(
"units" "V"
"key" "node"
"tolerance" 1.00000e-06
)
"I" FLOAT DOUBLE PROP(
"units" "A"
"key" "branch"
"tolerance" 1.00000e-12
)
"MMF" FLOAT DOUBLE PROP(
"units" "A*turn"
"key" "node"
"tolerance" 1.00000e-12
)
"Wb" FLOAT DOUBLE PROP(
"units" "Wb"
"key" "node"
"tolerance" 1.00000e-09
)
"Temp" FLOAT DOUBLE PROP(
"units" "C"
"key" "node"
"tolerance" 0.000100000
)
"Pwr" FLOAT DOUBLE PROP(
"units" "W"
"key" "node"
"tolerance" 1.00000e-09
)
"U" FLOAT DOUBLE PROP(
"units" ""
"key" "node"
"tolerance" 1.00000e-06
)
"V/Sec" FLOAT DOUBLE PROP(
"units" "V/s"
"key" "node"
"tolerance" 0.000100000
)
"I/Sec" FLOAT DOUBLE PROP(
"units" "A/s"
"key" "node"
"tolerance" 1.00000e-06
)
"1/Sec" FLOAT DOUBLE PROP(
"units" "1/s"
"key" "node"
"tolerance" 0.000100000
)
"HOD" FLOAT DOUBLE PROP(
"units" ""
"key" "node"
"tolerance" 0.0100000
)
"Q" FLOAT DOUBLE PROP(
"units" "Coul"
"key" "node"
"tolerance" 1.00000e-15
)
SWEEP
"v_in" "sweep" PROP(
"sweep_direction" 0
"plot" 0
"grid" 1
)
TRACE
"Xopamp:1" "I"
"Xopamp:2" "I"
"Xopamp:3" "I"
"Xopamp:4" "I"
"Xopamp:5" "I"
"Xopamp:6" "I"
"dd" "V"
"net7" "V"
"inp" "V"
"in" "V"
"inn" "V"
"out" "V"
"Xopamp.net1" "V"
"Xopamp.net3" "V"
"Xopamp.net2" "V"
"Xopamp.net8" "V"
"vdd:p" "I"
"vin:p" "I"
"vip:p" "I"
VALUE
"v_in" 0.000000000000000e+00
"Xopamp:1" 4.560054523290566e-05
"Xopamp:2" -5.557083232022264e-05
"Xopamp:3" 0.000000000000000e+00
"Xopamp:4" 0.000000000000000e+00
"Xopamp:5" 1.000000000000000e-05
"Xopamp:6" -2.971262611156585e-08
"dd" 3.300000000000000e+00
"net7" 8.715718574710847e-01
"inp" 1.650000000000000e+00
"in" 0.000000000000000e+00
"inn" 2.971262610412721e-01
"out" 3.268388871453992e+00
"Xopamp.net1" 3.004897265434197e+00
"Xopamp.net3" 2.693258287431456e-07
"Xopamp.net2" 3.192948302796464e-07
"Xopamp.net8" 3.192948302796464e-07
"vdd:p" -5.560054494632677e-05
"vin:p" 2.971262610412721e-08
"vip:p" 0.000000000000000e+00
"v_in" 1.000000000000000e-02
"Xopamp:1" 4.560046116303574e-05
"Xopamp:2" -5.557083944457113e-05
"Xopamp:3" 0.000000000000000e+00
"Xopamp:4" 0.000000000000000e+00
"Xopamp:5" 1.000000000000000e-05
"Xopamp:6" -2.962171781517223e-08
"dd" 3.300000000000000e+00
"net7" 8.715718574710847e-01
"inp" 1.650000000000000e+00
"in" 1.000000000000000e-02
"inn" 3.062171758583993e-01
"out" 3.268388934442392e+00
"Xopamp.net1" 2.997322762505308e+00
"Xopamp.net3" 3.229203443367081e-07
"Xopamp.net2" 3.820563691701476e-07
"Xopamp.net8" 3.820563691701476e-07
"vdd:p" -5.560046116215689e-05
"vin:p" 2.962171758583993e-08
"vip:p" 0.000000000000000e+00
"v_in" 2.000000000000000e-02
"Xopamp:1" 4.560037925403717e-05
"Xopamp:2" -5.557084844439252e-05
"Xopamp:3" 0.000000000000000e+00
"Xopamp:4" 0.000000000000000e+00
"Xopamp:5" 9.999999999999997e-06
"Xopamp:6" -2.953080935665651e-08
"dd" 3.300000000000000e+00
"net7" 8.715718574710847e-01
"inp" 1.650000000000000e+00
"in" 2.000000000000000e-02
"inn" 3.153080906644216e-01
"out" 3.268388997308637e+00
"Xopamp.net1" 2.989097691508263e+00
"Xopamp.net3" 3.909577020943626e-07
"Xopamp.net2" 4.617321722799992e-07
"Xopamp.net8" 4.617321722799992e-07
"vdd:p" -5.560037925345888e-05
"vin:p" 2.953080906644215e-08
"vip:p" 0.000000000000000e+00
"v_in" 3.000000000000000e-02
"Xopamp:1" 4.560029972582133e-05
"Xopamp:2" -5.557085982465828e-05
"Xopamp:3" 0.000000000000000e+00
"Xopamp:4" 0.000000000000000e+00
"Xopamp:5" 9.999999999999997e-06
"Xopamp:6" -2.943990091370586e-08
"dd" 3.300000000000000e+00
"net7" 8.715718574710847e-01
"inp" 1.650000000000000e+00
"in" 3.000000000000000e-02
"inn" 3.243990054563346e-01
"out" 3.268389060019681e+00
"Xopamp.net1" 2.980624576969302e+00
"Xopamp.net3" 4.773266636401547e-07
"Xopamp.net2" 5.628766901403450e-07
"Xopamp.net8" 5.628766901403450e-07
"vdd:p" -5.560029972520380e-05
"vin:p" 2.943990054563346e-08
"vip:p" 0.000000000000000e+00
"v_in" 4.000000000000000e-02
"Xopamp:1" 4.560022321493582e-05
"Xopamp:2" -5.557087422223269e-05
"Xopamp:3" 0.000000000000000e+00
"Xopamp:4" 6.462348535570529e-27
"Xopamp:5" 9.999999999999997e-06
"Xopamp:6" -2.934899248997270e-08
"dd" 3.300000000000000e+00
"net7" 8.715718574710847e-01
"inp" 1.650000000000000e+00
"in" 4.000000000000000e-02
"inn" 3.334899202303641e-01
"out" 3.268389122534004e+00
"Xopamp.net1" 2.971945079201692e+00
"Xopamp.net3" 5.869316978126429e-07
"Xopamp.net2" 6.912334792557724e-07
"Xopamp.net8" 6.912334792557724e-07
"vdd:p" -5.560022321425558e-05
"vin:p" 2.934899202303641e-08
"vip:p" 0.000000000000000e+00
"v_in" 5.000000000000000e-02
"Xopamp:1" 4.560015052714967e-05
"Xopamp:2" -5.557089244287970e-05
"Xopamp:3" 0.000000000000000e+00
"Xopamp:4" 0.000000000000000e+00
"Xopamp:5" 9.999999999999997e-06
"Xopamp:6" -2.925808408925173e-08
"dd" 3.300000000000000e+00
"net7" 8.715718574710847e-01
"inp" 1.650000000000000e+00
"in" 5.000000000000000e-02
"inn" 3.425808349817343e-01
"out" 3.268389184799077e+00
"Xopamp.net1" 2.963094848319831e+00
"Xopamp.net3" 7.259779848280664e-07
"Xopamp.net2" 8.540692247070426e-07
"Xopamp.net8" 8.540692247070426e-07
"vdd:p" -5.560015052637774e-05
"vin:p" 2.925808349817343e-08
"vip:p" 0.000000000000000e+00
"v_in" 6.000000000000000e-02
"Xopamp:1" 4.560008268136903e-05
"Xopamp:2" -5.557091550549779e-05
"Xopamp:3" 0.000000000000000e+00
"Xopamp:4" 0.000000000000000e+00
"Xopamp:5" 9.999999999999997e-06
"Xopamp:6" -2.916717571843441e-08
"dd" 3.300000000000000e+00
"net7" 8.715718574710847e-01
"inp" 1.650000000000000e+00
"in" 6.000000000000000e-02
"inn" 3.516717497044068e-01
"out" 3.268389246748475e+00
"Xopamp.net1" 2.954103932981885e+00
"Xopamp.net3" 9.023120801270485e-07
"Xopamp.net2" 1.060572633803989e-06
"Xopamp.net8" 1.060572633803989e-06
"vdd:p" -5.560008268046809e-05
"vin:p" 2.916717497044069e-08
"vip:p" 0.000000000000000e+00
"v_in" 7.000000000000001e-02
"Xopamp:1" 4.560002096520674e-05
"Xopamp:2" -5.557094469769083e-05
"Xopamp:3" 0.000000000000000e+00
"Xopamp:4" 0.000000000000000e+00
"Xopamp:5" 9.999999999999997e-06
"Xopamp:6" -2.907626738626212e-08
"dd" 3.300000000000000e+00
"net7" 8.715718574710847e-01
"inp" 1.650000000000000e+00
"in" 7.000000000000001e-02
"inn" 3.607626643907506e-01
"out" 3.268389308298256e+00
"Xopamp.net1" 2.944997176869168e+00
"Xopamp.net3" 1.125849895330312e-06
"Xopamp.net2" 1.322355561741644e-06
"Xopamp.net8" 1.322355561741644e-06
"vdd:p" -5.560002096412977e-05
"vin:p" 2.907626643907506e-08
"vip:p" 0.000000000000000e+00
"v_in" 8.000000000000000e-02
"Xopamp:1" 4.559996700469536e-05
"Xopamp:2" -5.557098164548297e-05
"Xopamp:3" 0.000000000000000e+00
"Xopamp:4" 0.000000000000000e+00
"Xopamp:5" 1.000000000000000e-05
"Xopamp:6" -2.898535910127295e-08
"dd" 3.300000000000000e+00
"net7" 8.715718574710847e-01
"inp" 1.650000000000000e+00
"in" 8.000000000000000e-02
"inn" 3.698535790311290e-01
"out" 3.268389369342419e+00
"Xopamp.net1" 2.935794783276521e+00
"Xopamp.net3" 1.409113612800119e-06
"Xopamp.net2" 1.654081679349546e-06
"Xopamp.net8" 1.654081679349546e-06
"vdd:p" -5.559996700338604e-05
"vin:p" 2.898535790311290e-08
"vip:p" 0.000000000000000e+00
"v_in" 9.000000000000000e-02
"Xopamp:1" 4.559992285160515e-05
"Xopamp:2" -5.557102840063224e-05
"Xopamp:3" 0.000000000000000e+00
"Xopamp:4" 0.000000000000000e+00
"Xopamp:5" 9.999999999999997e-06
"Xopamp:6" -2.889445087599622e-08
"dd" 3.300000000000000e+00
"net7" 8.715718574710847e-01
"inp" 1.650000000000000e+00
"in" 9.000000000000000e-02
"inn" 3.789444936133825e-01
"out" 3.268389429747207e+00
"Xopamp.net1" 2.926512940995211e+00
"Xopamp.net3" 1.767904162829676e-06
"Xopamp.net2" 2.074253852407127e-06
"Xopamp.net8" 2.074253852407127e-06
"vdd:p" -5.559992284999371e-05
"vin:p" 2.889444936133825e-08
"vip:p" 0.000000000000000e+00
"v_in" 9.999999999999999e-02
"Xopamp:1" 4.559989109260007e-05
"Xopamp:2" -5.557108754978722e-05
"Xopamp:3" 0.000000000000000e+00
"Xopamp:4" 0.000000000000000e+00
"Xopamp:5" 9.999999999999997e-06
"Xopamp:6" -2.880354272613930e-08
"dd" 3.300000000000000e+00
"net7" 8.715718574710847e-01
"inp" 1.650000000000000e+00
"in" 9.999999999999999e-02
"inn" 3.880354081221815e-01
"out" 3.268389489343997e+00
"Xopamp.net1" 2.917164443132402e+00
"Xopamp.net3" 2.222141956603982e-06
"Xopamp.net2" 2.606198505461548e-06
"Xopamp.net8" 2.606198505461548e-06
"vdd:p" -5.559989109059983e-05
"vin:p" 2.880354081221815e-08
"vip:p" 0.000000000000000e+00
"v_in" 1.100000000000000e-01
"Xopamp:1" 4.559987498542175e-05
"Xopamp:2" -5.557116235067129e-05
"Xopamp:3" 0.000000000000000e+00
"Xopamp:4" 0.000000000000000e+00
"Xopamp:5" 1.000000000000000e-05
"Xopamp:6" -2.871263467020140e-08
"dd" 3.300000000000000e+00
"net7" 8.715718574710847e-01
"inp" 1.650000000000000e+00
"in" 1.100000000000000e-01
"inn" 3.971263225382198e-01
"out" 3.268389547920418e+00
"Xopamp.net1" 2.907759260448096e+00
"Xopamp.net3" 2.796915838749716e-06
"Xopamp.net2" 3.279293746582318e-06
"Xopamp.net8" 3.279293746582318e-06
"vdd:p" -5.559987498292607e-05
"vin:p" 2.871263225382198e-08
"vip:p" 0.000000000000000e+00
"v_in" 1.200000000000000e-01
"Xopamp:1" 4.559987862841058e-05
"Xopamp:2" -5.557125690160136e-05
"Xopamp:3" 0.000000000000000e+00
"Xopamp:4" 0.000000000000000e+00
"Xopamp:5" 1.000000000000000e-05
"Xopamp:6" -2.862172673177068e-08
"dd" 3.300000000000000e+00
"net7" 8.715718574710847e-01
"inp" 1.650000000000000e+00
"in" 1.200000000000000e-01
"inn" 4.062172368372092e-01
"out" 3.268389605209301e+00
"Xopamp.net1" 2.898305051784423e+00
"Xopamp.net3" 3.523788862283729e-06
"Xopamp.net2" 4.130498137239654e-06
"Xopamp.net8" 4.130498137239654e-06
"vdd:p" -5.559987862528697e-05
"vin:p" 2.862172368372092e-08
"vip:p" 0.000000000000000e+00
"v_in" 1.300000000000000e-01
"Xopamp:1" 4.559990717098238e-05
"Xopamp:2" -5.557137635196290e-05
"Xopamp:3" 0.000000000000000e+00
"Xopamp:4" 0.000000000000000e+00
"Xopamp:5" 9.999999999999997e-06
"Xopamp:6" -2.853081894105573e-08
"dd" 3.300000000000000e+00
"net7" 8.715718574710847e-01
"inp" 1.650000000000000e+00
"in" 1.300000000000000e-01
"inn" 4.153081509886324e-01
"out" 3.268389660874957e+00
"Xopamp.net1" 2.888807607713011e+00
"Xopamp.net3" 4.442419667821339e-06
"Xopamp.net2" 5.206248903436798e-06
"Xopamp.net8" 5.206248903436798e-06
"vdd:p" -5.559990716706515e-05
"vin:p" 2.853081509886324e-08
"vip:p" 0.000000000000000e+00
"v_in" 1.400000000000000e-01
"Xopamp:1" 4.559996707421805e-05
"Xopamp:2" -5.557152716280167e-05
"Xopamp:3" 0.000000000000000e+00
"Xopamp:4" 5.169878828456423e-26
"Xopamp:5" 9.999999999999997e-06
"Xopamp:6" -2.843991133283234e-08
"dd" 3.300000000000000e+00
"net7" 8.715718574710847e-01
"inp" 1.650000000000000e+00
"in" 1.400000000000000e-01
"inn" 4.243990649541989e-01
"out" 3.268389714496188e+00
"Xopamp.net1" 2.879271231558502e+00
"Xopamp.net3" 5.602570108279562e-06
"Xopamp.net2" 6.564812246412873e-06
"Xopamp.net8" 6.564812246412873e-06
"vdd:p" -5.559996706930307e-05
"vin:p" 2.843990649541989e-08
"vip:p" 0.000000000000000e+00
"v_in" 1.500000000000000e-01
"Xopamp:1" 4.560006643250096e-05
"Xopamp:2" -5.557171742845461e-05
"Xopamp:3" 0.000000000000000e+00
"Xopamp:4" 5.169878828456423e-26
"Xopamp:5" 9.999999999999997e-06
"Xopamp:6" -2.834900395271830e-08
"dd" 3.300000000000000e+00
"net7" 8.715718574710847e-01
"inp" 1.650000000000000e+00
"in" 1.500000000000000e-01
"inn" 4.334899786859373e-01
"out" 3.268389765545310e+00
"Xopamp.net1" 2.869699066206754e+00
"Xopamp.net3" 7.066583418018841e-06
"Xopamp.net2" 8.279184382831707e-06
"Xopamp.net8" 8.279184382831707e-06
"vdd:p" -5.560006642633344e-05
"vin:p" 2.834899786859373e-08
"vip:p" 0.000000000000000e+00
"v_in" 1.600000000000000e-01
"Xopamp:1" 4.560021536910789e-05
"Xopamp:2" -5.557195727214378e-05
"Xopamp:3" 0.000000000000000e+00
"Xopamp:4" 0.000000000000000e+00
"Xopamp:5" 9.999999999999997e-06
"Xopamp:6" -2.825809685427999e-08
"dd" 3.300000000000000e+00
"net7" 8.715718574710847e-01
"inp" 1.650000000000000e+00
"in" 1.600000000000000e-01
"inn" 4.425808921238514e-01
"out" 3.268389813362365e+00
"Xopamp.net1" 2.860093376906562e+00
"Xopamp.net3" 8.912432726513675e-06
"Xopamp.net2" 1.044066005402146e-05
"Xopamp.net8" 1.044066005402146e-05
"vdd:p" -5.560021536137320e-05
"vin:p" 2.825808921238514e-08
"vip:p" 0.000000000000000e+00
"v_in" 1.700000000000000e-01
"Xopamp:1" 4.560042652092660e-05
"Xopamp:2" -5.557225933068759e-05
"Xopamp:3" 0.000000000000000e+00
"Xopamp:4" 0.000000000000000e+00
"Xopamp:5" 9.999999999999997e-06
"Xopamp:6" -2.816719010513097e-08
"dd" 3.300000000000000e+00
"net7" 8.715718574710847e-01
"inp" 1.650000000000000e+00
"in" 1.700000000000000e-01
"inn" 4.516718051930453e-01
"out" 3.268389857123498e+00
"Xopamp.net1" 2.850455800531898e+00
"Xopamp.net3" 1.123745703770136e-05
"Xopamp.net2" 1.316320547191421e-05
"Xopamp.net8" 1.316320547191421e-05
"vdd:p" -5.560042651123487e-05
"vin:p" 2.816718051930453e-08
"vip:p" 0.000000000000000e+00
"v_in" 1.800000000000000e-01
"Xopamp:1" 4.560071562987092e-05
"Xopamp:2" -5.557263934591769e-05
"Xopamp:3" 0.000000000000000e+00
"Xopamp:4" 0.000000000000000e+00
"Xopamp:5" 1.000000000000000e-05
"Xopamp:6" -2.807628378514304e-08
"dd" 3.300000000000000e+00
"net7" 8.715718574710847e-01
"inp" 1.650000000000000e+00
"in" 1.800000000000000e-01
"inn" 4.607627178002165e-01
"out" 3.268389895802382e+00
"Xopamp.net1" 2.840787571030933e+00
"Xopamp.net3" 1.416292078789601e-05
"Xopamp.net2" 1.658879482878306e-05
"Xopamp.net8" 1.658879482878306e-05
"vdd:p" -5.560071561774298e-05
"vin:p" 2.807627178002165e-08
"vip:p" 0.000000000000000e+00
"v_in" 1.900000000000000e-01
"Xopamp:1" 4.560110226120299e-05
"Xopamp:2" -5.557311688299403e-05
"Xopamp:3" 0.000000000000000e+00
"Xopamp:4" 0.000000000000000e+00
"Xopamp:5" 9.999999999999997e-06
"Xopamp:6" -2.798537799340552e-08
"dd" 3.300000000000000e+00
"net7" 8.715718574710847e-01
"inp" 1.650000000000000e+00
"in" 1.900000000000000e-01
"inn" 4.698536298293949e-01
"out" 3.268389928123344e+00
"Xopamp.net1" 2.831089729304276e+00
"Xopamp.net3" 1.783955348466044e-05
"Xopamp.net2" 2.089389325413572e-05
"Xopamp.net8" 2.089389325413572e-05
"vdd:p" -5.560110224604952e-05
"vin:p" 2.798536298293949e-08
"vip:p" 0.000000000000000e+00
"v_in" 2.000000000000000e-01
"Xopamp:1" 4.560161067164217e-05
"Xopamp:2" -5.557371619851451e-05
"Xopamp:3" 0.000000000000000e+00
"Xopamp:4" 0.000000000000000e+00
"Xopamp:5" 9.999999999999997e-06
"Xopamp:6" -2.789447284739848e-08
"dd" 3.300000000000000e+00
"net7" 8.715718574710847e-01
"inp" 1.650000000000000e+00
"in" 2.000000000000000e-01
"inn" 4.789445411367914e-01
"out" 3.268389952504704e+00
"Xopamp.net1" 2.821363323569494e+00
"Xopamp.net3" 2.245424729589588e-05
"Xopamp.net2" 2.629729396491826e-05
"Xopamp.net8" 2.629729396491826e-05
"vdd:p" -5.560161065274334e-05
"vin:p" 2.789445411367913e-08
"vip:p" 0.000000000000000e+00
"v_in" 2.100000000000000e-01
"Xopamp:1" 4.560227085289809e-05
"Xopamp:2" -5.557446728404359e-05
"Xopamp:3" 0.000000000000000e+00
"Xopamp:4" 0.000000000000000e+00
"Xopamp:5" 9.999999999999997e-06
"Xopamp:6" -2.780356848684849e-08
"dd" 3.300000000000000e+00
"net7" 8.715718574710847e-01
"inp" 1.650000000000000e+00
"in" 2.100000000000000e-01
"inn" 4.880354515446030e-01
"out" 3.268389966990633e+00
"Xopamp.net1" 2.811609603280201e+00
"Xopamp.net3" 2.823811225526607e-05
"Xopamp.net2" 3.306954265048630e-05
"Xopamp.net8" 3.306954265048630e-05
"vdd:p" -5.560227082937939e-05
"vin:p" 2.780354515446030e-08
"vip:p" 0.000000000000000e+00
"v_in" 2.200000000000001e-01
"Xopamp:1" 4.560311977890241e-05
"Xopamp:2" -5.557540711333561e-05
"Xopamp:3" 0.000000000000000e+00
"Xopamp:4" 0.000000000000000e+00
"Xopamp:5" 9.999999999999997e-06
"Xopamp:6" -2.771266508120956e-08
"dd" 3.300000000000000e+00
"net7" 8.715718574710847e-01
"inp" 1.650000000000000e+00
"in" 2.200000000000001e-01
"inn" 4.971263608336045e-01
"out" 3.268389969169649e+00
"Xopamp.net1" 2.801830205713477e+00
"Xopamp.net3" 3.547611035044183e-05
"Xopamp.net2" 4.154420712356483e-05
"Xopamp.net8" 4.154420712356483e-05
"vdd:p" -5.560311974970231e-05
"vin:p" 2.771263608336044e-08
"vip:p" 0.000000000000000e+00
"v_in" 2.300000000000001e-01
"Xopamp:1" 4.560420288758184e-05
"Xopamp:2" -5.557658112400199e-05
"Xopamp:3" 0.000000000000000e+00
"Xopamp:4" 0.000000000000000e+00
"Xopamp:5" 9.999999999999997e-06
"Xopamp:6" -2.762176293340100e-08
"dd" 3.300000000000000e+00
"net7" 8.715718574710847e-01
"inp" 1.650000000000000e+00
"in" 2.300000000000001e-01
"inn" 5.062172687343331e-01
"out" 3.268389956077664e+00
"Xopamp.net1" 2.792027329311170e+00
"Xopamp.net3" 4.451851056586030e-05
"Xopamp.net2" 5.213127421979435e-05
"Xopamp.net8" 5.213127421979435e-05
"vdd:p" -5.560420285130885e-05
"vin:p" 2.762172687343331e-08
"vip:p" 0.000000000000000e+00
"v_in" 2.400000000000001e-01
"Xopamp:1" 4.560557582941493e-05
"Xopamp:2" -5.557804496658737e-05
"Xopamp:3" 0.000000000000000e+00
"Xopamp:4" 0.000000000000000e+00
"Xopamp:5" 9.999999999999997e-06
"Xopamp:6" -2.753086195643592e-08
"dd" 3.300000000000000e+00
"net7" 8.715718574710847e-01
"inp" 1.650000000000000e+00
"in" 2.400000000000001e-01
"inn" 5.153081749167150e-01
"out" 3.268389924083864e+00
"Xopamp.net1" 2.782203881869170e+00
"Xopamp.net3" 5.579442654458112e-05
"Xopamp.net2" 6.533297834495798e-05
"Xopamp.net8" 6.533297834495798e-05
"vdd:p" -5.560557578475627e-05
"vin:p" 2.753081749167149e-08
"vip:p" 0.000000000000000e+00
"v_in" 2.500000000000001e-01
"Xopamp:1" 4.560730651984787e-05
"Xopamp:2" -5.557986655591182e-05
"Xopamp:3" 0.000000000000000e+00
"Xopamp:4" 0.000000000000000e+00
"Xopamp:5" 9.999999999999997e-06
"Xopamp:6" -2.743996274007964e-08
"dd" 3.300000000000000e+00
"net7" 8.715718574710847e-01
"inp" 1.650000000000000e+00
"in" 2.500000000000001e-01
"inn" 5.243990789777729e-01
"out" 3.268389868755502e+00
"Xopamp.net1" 2.772363585254092e+00
"Xopamp.net3" 6.982771686120486e-05
"Xopamp.net2" 8.176238685912016e-05
"Xopamp.net8" 8.176238685912016e-05
"vdd:p" -5.560730646484577e-05
"vin:p" 2.743990789777729e-08
"vip:p" 0.000000000000000e+00
"v_in" 2.600000000000001e-01
"Xopamp:1" 4.560947752831064e-05
"Xopamp:2" -5.558212846113910e-05
"Xopamp:3" 0.000000000000000e+00
"Xopamp:4" -8.271806125530277e-25
"Xopamp:5" 9.999999999999997e-06
"Xopamp:6" -2.734906548829092e-08
"dd" 3.300000000000000e+00
"net7" 8.715718574710847e-01
"inp" 1.650000000000000e+00
"in" 2.600000000000001e-01
"inn" 5.334899804274286e-01
"out" 3.268389784701713e+00
"Xopamp.net1" 2.762511012663698e+00
"Xopamp.net3" 8.725554546749113e-05
"Xopamp.net2" 1.021650872265728e-04
"Xopamp.net8" 1.021650872265728e-04
"vdd:p" -5.560947746075622e-05
"vin:p" 2.734899804274285e-08
"vip:p" 0.000000000000000e+00
"v_in" 2.700000000000001e-01
"Xopamp:1" 4.561218884535400e-05
"Xopamp:2" -5.558493067235730e-05
"Xopamp:3" 0.000000000000000e+00
"Xopamp:4" -8.271806125530277e-25
"Xopamp:5" 9.999999999999997e-06
"Xopamp:6" -2.725817056172284e-08
"dd" 3.300000000000000e+00
"net7" 8.715718574710847e-01
"inp" 1.650000000000000e+00
"in" 2.700000000000001e-01
"inn" 5.425808786719141e-01
"out" 3.268389665391053e+00
"Xopamp.net1" 2.752651531435605e+00
"Xopamp.net3" 1.088499177676461e-04
"Xopamp.net2" 1.274443408067321e-04
"Xopamp.net8" 1.274443408067321e-04
"vdd:p" -5.561218876259997e-05
"vin:p" 2.725808786719140e-08
"vip:p" 0.000000000000000e+00
"v_in" 2.800000000000001e-01
"Xopamp:1" 4.561556106460937e-05
"Xopamp:2" -5.558839378263308e-05
"Xopamp:3" 0.000000000000000e+00
"Xopamp:4" -1.654361225106055e-24
"Xopamp:5" 1.000000000000000e-05
"Xopamp:6" -2.716727836866561e-08
"dd" 3.300000000000000e+00
"net7" 8.715718574710847e-01
"inp" 1.650000000000000e+00
"in" 2.800000000000001e-01
"inn" 5.516717729946837e-01
"out" 3.268389502941520e+00
"Xopamp.net1" 2.742791126446178e+00
"Xopamp.net3" 1.355425274210933e-04
"Xopamp.net2" 1.586900899103806e-04
"Xopamp.net8" 1.586900899103806e-04
"vdd:p" -5.561556096349150e-05
"vin:p" 2.716717729946836e-08
"vip:p" 0.000000000000000e+00
"v_in" 2.900000000000001e-01
"Xopamp:1" 4.561973902024874e-05
"Xopamp:2" -5.559266262545178e-05
"Xopamp:3" 0.000000000000000e+00
"Xopamp:4" 0.000000000000000e+00
"Xopamp:5" 1.000000000000000e-05
"Xopamp:6" -2.707638937367275e-08
"dd" 3.300000000000000e+00
"net7" 8.715718574710847e-01
"inp" 1.650000000000000e+00
"in" 2.900000000000001e-01
"inn" 5.607626625344978e-01
"out" 3.268389287879475e+00
"Xopamp.net1" 2.732936088433965e+00
"Xopamp.net3" 1.684532712743638e-04
"Xopamp.net2" 1.972122293010274e-04
"Xopamp.net8" 1.972122293010274e-04
"vdd:p" -5.561973889699925e-05
"vin:p" 2.707626625344977e-08
"vip:p" 0.000000000000000e+00
"v_in" 3.000000000000001e-01
"Xopamp:1" 4.562489592012900e-05
"Xopamp:2" -5.559791040785726e-05
"Xopamp:3" 0.000000000000000e+00
"Xopamp:4" 0.000000000000000e+00
"Xopamp:5" 9.999999999999997e-06
"Xopamp:6" -2.698550410014963e-08
"dd" 3.300000000000000e+00
"net7" 8.715718574710847e-01
"inp" 1.650000000000000e+00
"in" 3.000000000000001e-01
"inn" 5.698535462603934e-01
"out" 3.268389008864326e+00
"Xopamp.net1" 2.723092568976369e+00
"Xopamp.net3" 2.089228136027781e-04
"Xopamp.net2" 2.445785790981218e-04
"Xopamp.net8" 2.445785790981218e-04
"vdd:p" -5.562489577030171e-05
"vin:p" 2.698535462603933e-08
"vip:p" 0.000000000000000e+00
"v_in" 3.100000000000001e-01
"Xopamp:1" 4.563123801375817e-05
"Xopamp:2" -5.560434337842114e-05
"Xopamp:3" 0.000000000000000e+00
"Xopamp:4" 0.000000000000000e+00
"Xopamp:5" 9.999999999999997e-06
"Xopamp:6" -2.689462313519851e-08
"dd" 3.300000000000000e+00
"net7" 8.715718574710847e-01
"inp" 1.650000000000000e+00
"in" 3.100000000000001e-01
"inn" 5.789444229432310e-01
"out" 3.268388652375540e+00
"Xopamp.net1" 2.713266027601384e+00
"Xopamp.net3" 2.585496001692188e-04
"Xopamp.net2" 3.026580158123985e-04
"Xopamp.net8" 3.026580158123985e-04
"vdd:p" -5.563123783217839e-05
"vin:p" 2.689444229432309e-08
"vip:p" 0.000000000000000e+00
"v_in" 3.200000000000001e-01
"Xopamp:1" 4.563900982928894e-05
"Xopamp:2" -5.561220606423957e-05
"Xopamp:3" 0.000000000000000e+00
"Xopamp:4" 3.308722450212111e-24
"Xopamp:5" 9.999999999999997e-06
"Xopamp:6" -2.680374713412474e-08
"dd" 3.300000000000000e+00
"net7" 8.715718574710847e-01
"inp" 1.650000000000000e+00
"in" 3.200000000000001e-01
"inn" 5.880352911235046e-01
"out" 3.268388202358549e+00
"Xopamp.net1" 2.703460621765370e+00
"Xopamp.net3" 3.192317233088654e-04
"Xopamp.net2" 3.736692149988804e-04
"Xopamp.net8" 3.736692149988804e-04
"vdd:p" -5.563900961003603e-05
"vin:p" 2.680352911235045e-08
"vip:p" 0.000000000000000e+00
"v_in" 3.300000000000001e-01
"Xopamp:1" 4.564850000123533e-05
"Xopamp:2" -5.562178709863346e-05
"Xopamp:3" 0.000000000000000e+00
"Xopamp:4" 0.000000000000000e+00
"Xopamp:5" 9.999999999999997e-06
"Xopamp:6" -2.671287681788211e-08
"dd" 3.300000000000000e+00
"net7" 8.715718574710847e-01
"inp" 1.650000000000000e+00
"in" 3.300000000000001e-01
"inn" 5.971261490751346e-01
"out" 3.268387639826479e+00
"Xopamp.net1" 2.693678610149793e+00
"Xopamp.net3" 3.932139948577770e-04
"Xopamp.net2" 4.602354012450989e-04
"Xopamp.net8" 4.602354012450989e-04
"vdd:p" -5.564849973764755e-05
"vin:p" 2.671261490751344e-08
"vip:p" 0.000000000000000e+00
"v_in" 3.400000000000001e-01
"Xopamp:1" 4.566004768459000e-05
"Xopamp:2" -5.563342563517847e-05
"Xopamp:3" 0.000000000000000e+00
"Xopamp:4" -6.617444900424221e-24
"Xopamp:5" 9.999999999999997e-06
"Xopamp:6" -2.662201297834476e-08
"dd" 3.300000000000000e+00
"net7" 8.715718574710847e-01
"inp" 1.650000000000000e+00
"in" 3.400000000000001e-01
"inn" 6.062169947650639e-01
"out" 3.268386942415701e+00
"Xopamp.net1" 2.683919847269138e+00
"Xopamp.net3" 4.831404521261772e-04
"Xopamp.net2" 5.654453390655566e-04
"Xopamp.net8" 5.654453390655566e-04
"vdd:p" -5.566004736923124e-05
"vin:p" 2.662169947650638e-08
"vip:p" 0.000000000000000e+00
"v_in" 3.500000000000001e-01
"Xopamp:1" 4.567404950326369e-05
"Xopamp:2" -5.564751829598858e-05
"Xopamp:3" 0.000000000000000e+00
"Xopamp:4" 0.000000000000000e+00
"Xopamp:5" 9.999999999999997e-06
"Xopamp:6" -2.653115646060765e-08
"dd" 3.300000000000000e+00
"net7" 8.715718574710847e-01
"inp" 1.650000000000000e+00
"in" 3.500000000000001e-01
"inn" 6.153078258086871e-01
"out" 3.268386083895557e+00
"Xopamp.net1" 2.674181439474367e+00
"Xopamp.net3" 5.921122445385386e-04
"Xopamp.net2" 6.929204625209811e-04
"Xopamp.net8" 6.929204625209811e-04
"vdd:p" -5.567404912779575e-05
"vin:p" 2.653078258086870e-08
"vip:p" 0.000000000000000e+00
"v_in" 3.600000000000002e-01
"Xopamp:1" 4.569096690178920e-05
"Xopamp:2" -5.566452652317178e-05
"Xopamp:3" 0.000000000000000e+00
"Xopamp:4" -6.617444900424221e-24
"Xopamp:5" 9.999999999999997e-06
"Xopamp:6" -2.644030815162268e-08
"dd" 3.300000000000000e+00
"net7" 8.715718574710847e-01
"inp" 1.650000000000000e+00
"in" 3.600000000000002e-01
"inn" 6.243986394215207e-01
"out" 3.268385033636726e+00
"Xopamp.net1" 2.664457610943571e+00
"Xopamp.net3" 7.237503539933542e-04
"Xopamp.net2" 8.468874486378890e-04
"Xopamp.net8" 8.468874486378890e-04
"vdd:p" -5.569096645666808e-05
"vin:p" 2.643986394215206e-08
"vip:p" 0.000000000000000e+00
"v_in" 3.700000000000002e-01
"Xopamp:1" 4.571133364943466e-05
"Xopamp:2" -5.568498408270254e-05
"Xopamp:3" 0.000000000000000e+00
"Xopamp:4" -6.617444900424221e-24
"Xopamp:5" 1.000000000000000e-05
"Xopamp:6" -2.634946893272425e-08
"dd" 3.300000000000000e+00
"net7" 8.715718574710847e-01
"inp" 1.650000000000000e+00
"in" 3.700000000000002e-01
"inn" 6.334894323681213e-01
"out" 3.268383756049332e+00
"Xopamp.net1" 2.654739799392162e+00
"Xopamp.net3" 8.822618196945718e-04
"Xopamp.net2" 1.032254607203867e-03
"Xopamp.net8" 1.032254607203867e-03
"vdd:p" -5.571133312344511e-05
"vin:p" 2.634894323681211e-08
"vip:p" 0.000000000000000e+00
"v_in" 3.800000000000002e-01
"Xopamp:1" 4.573576307978208e-05
"Xopamp:2" -5.570950430383860e-05
"Xopamp:3" 0.000000000000000e+00
"Xopamp:4" 0.000000000000000e+00
"Xopamp:5" 9.999999999999997e-06
"Xopamp:6" -2.625863962810252e-08
"dd" 3.300000000000000e+00
"net7" 8.715718574710847e-01
"inp" 1.650000000000000e+00
"in" 3.800000000000002e-01
"inn" 6.425802009101119e-01
"out" 3.268382210011230e+00
"Xopamp.net1" 2.645016972701973e+00
"Xopamp.net3" 1.072507020925668e-03
"Xopamp.net2" 1.254689132537530e-03
"Xopamp.net8" 1.254689132537530e-03
"vdd:p" -5.573576245948529e-05
"vin:p" 2.625802009101117e-08
"vip:p" 0.000000000000000e+00
"v_in" 3.900000000000002e-01
"Xopamp:1" 4.576495443873234e-05
"Xopamp:2" -5.573878642720615e-05
"Xopamp:3" 0.000000000000000e+00
"Xopamp:4" 0.000000000000000e+00
"Xopamp:5" 9.999999999999997e-06
"Xopamp:6" -2.616782090704905e-08
"dd" 3.300000000000000e+00
"net7" 8.715718574710847e-01
"inp" 1.650000000000000e+00
"in" 3.900000000000002e-01
"inn" 6.516709407562843e-01
"out" 3.268380348319125e+00
"Xopamp.net1" 2.635276135408052e+00
"Xopamp.net3" 1.300064128701034e-03
"Xopamp.net2" 1.520690554049720e-03
"Xopamp.net8" 1.520690554049720e-03
"vdd:p" -5.576495370804661e-05
"vin:p" 2.616709407562841e-08
"vip:p" 0.000000000000000e+00
"v_in" 4.000000000000002e-01
"Xopamp:1" 4.579969747650829e-05
"Xopamp:2" -5.577362019718566e-05
"Xopamp:3" 0.000000000000000e+00
"Xopamp:4" 0.000000000000000e+00
"Xopamp:5" 9.999999999999997e-06
"Xopamp:6" -2.607701317182995e-08
"dd" 3.300000000000000e+00
"net7" 8.715718574710847e-01
"inp" 1.650000000000000e+00
"in" 4.000000000000002e-01
"inn" 6.607616470190116e-01
"out" 3.268378117209126e+00
"Xopamp.net1" 2.625502980418118e+00
"Xopamp.net3" 1.571285174597353e-03
"Xopamp.net2" 1.837653757322472e-03
"Xopamp.net8" 1.837653757322472e-03
"vdd:p" -5.579969661667242e-05
"vin:p" 2.607616470190114e-08
"vip:p" 0.000000000000000e+00
"v_in" 4.100000000000002e-01
"Xopamp:1" 4.584087418898140e-05
"Xopamp:2" -5.581488760397628e-05
"Xopamp:3" 0.000000000000000e+00
"Xopamp:4" 0.000000000000000e+00
"Xopamp:5" 1.000000000000000e-05
"Xopamp:6" -2.598621640417640e-08
"dd" 3.300000000000000e+00
"net7" 8.715718574710847e-01
"inp" 1.650000000000000e+00
"in" 4.100000000000002e-01
"inn" 6.698523141824826e-01
"out" 3.268375456007306e+00
"Xopamp.net1" 2.615682635637057e+00
"Xopamp.net3" 1.893336534742609e-03
"Xopamp.net2" 2.213913001850519e-03
"Xopamp.net8" 2.213913001850519e-03
"vdd:p" -5.584087317916494e-05
"vin:p" 2.598523141824824e-08
"vip:p" 0.000000000000000e+00
"v_in" 4.200000000000002e-01
"Xopamp:1" 4.588945644502850e-05
"Xopamp:2" -5.586356051194679e-05
"Xopamp:3" 0.000000000000000e+00
"Xopamp:4" -2.646977960169689e-23
"Xopamp:5" 9.999999999999997e-06
"Xopamp:6" -2.589543000384022e-08
"dd" 3.300000000000000e+00
"net7" 8.715718574710847e-01
"inp" 1.650000000000000e+00
"in" 4.200000000000002e-01
"inn" 6.789429360892310e-01
"out" 3.268372296981537e+00
"Xopamp.net1" 2.605800454820488e+00
"Xopamp.net3" 2.274215356187380e-03
"Xopamp.net2" 2.658756870690656e-03
"Xopamp.net8" 2.658756870690656e-03
"vdd:p" -5.588945526371015e-05
"vin:p" 2.589429360892307e-08
"vip:p" 0.000000000000000e+00
"v_in" 4.300000000000002e-01
"Xopamp:1" 4.594649819793672e-05
"Xopamp:2" -5.592069287213116e-05
"Xopamp:3" 0.000000000000000e+00
"Xopamp:4" 0.000000000000000e+00
"Xopamp:5" 1.000000000000000e-05
"Xopamp:6" -2.580465263025961e-08
"dd" 3.300000000000000e+00
"net7" 8.715718574710847e-01
"inp" 1.650000000000000e+00
"in" 4.300000000000002e-01
"inn" 6.880335059517770e-01
"out" 3.268368565469544e+00
"Xopamp.net1" 2.595842804527604e+00
"Xopamp.net3" 2.722733028063641e-03
"Xopamp.net2" 3.182403603336012e-03
"Xopamp.net8" 3.182403603336012e-03
"vdd:p" -5.594649682497870e-05
"vin:p" 2.580335059517767e-08
"vip:p" 0.000000000000000e+00
"v_in" 4.400000000000002e-01
"Xopamp:1" 4.601312113968653e-05
"Xopamp:2" -5.598740637747352e-05
"Xopamp:3" 0.000000000000000e+00
"Xopamp:4" 0.000000000000000e+00
"Xopamp:5" 1.000000000000000e-05
"Xopamp:6" -2.571388207139110e-08
"dd" 3.300000000000000e+00
"net7" 8.715718574710847e-01
"inp" 1.650000000000000e+00
"in" 4.400000000000002e-01
"inn" 6.971240163955155e-01
"out" 3.268364180350668e+00