HEADER
"PSFversion" "1.00"
"simulator" "spectre"
"version" "23.1.0.063"
"date" "3:06:56 PM, Thur Feb 6, 2025"
"design" ""
"analysis type" "dc"
"analysis name" "outdc2"
"analysis description" "DC Analysis `outdc2': v_in = (0 -> 3.3)"
"xVecSorted" "unsorted"
"tolerance.relative" 0.00100000
"reltol" 0.00100000
"abstol(V)" 1.00000e-06
"abstol(I)" 1.00000e-12
"temp" 27.0000
"tnom" 27.0000
"tempeffects" "all"
"gmindc" 1.00000e-12
"rabsshort" 0.00100000
TYPE
"sweep" FLOAT DOUBLE PROP(
"key" "sweep"
)
"LogicV" FLOAT DOUBLE PROP(
"key" "node"
)
"V" FLOAT DOUBLE PROP(
"units" "V"
"key" "node"
"tolerance" 1.00000e-06
)
"I" FLOAT DOUBLE PROP(
"units" "A"
"key" "branch"
"tolerance" 1.00000e-12
)
"MMF" FLOAT DOUBLE PROP(
"units" "A*turn"
"key" "node"
"tolerance" 1.00000e-12
)
"Wb" FLOAT DOUBLE PROP(
"units" "Wb"
"key" "node"
"tolerance" 1.00000e-09
)
"Temp" FLOAT DOUBLE PROP(
"units" "C"
"key" "node"
"tolerance" 0.000100000
)
"Pwr" FLOAT DOUBLE PROP(
"units" "W"
"key" "node"
"tolerance" 1.00000e-09
)
"U" FLOAT DOUBLE PROP(
"units" ""
"key" "node"
"tolerance" 1.00000e-06
)
"V/Sec" FLOAT DOUBLE PROP(
"units" "V/s"
"key" "node"
"tolerance" 0.000100000
)
"I/Sec" FLOAT DOUBLE PROP(
"units" "A/s"
"key" "node"
"tolerance" 1.00000e-06
)
"1/Sec" FLOAT DOUBLE PROP(
"units" "1/s"
"key" "node"
"tolerance" 0.000100000
)
"HOD" FLOAT DOUBLE PROP(
"units" ""
"key" "node"
"tolerance" 0.0100000
)
"Q" FLOAT DOUBLE PROP(
"units" "Coul"
"key" "node"
"tolerance" 1.00000e-15
)
SWEEP
"v_in" "sweep" PROP(
"sweep_direction" 0
"plot" 0
"grid" 1
)
TRACE
"Xopamp:1" "I"
"Xopamp:2" "I"
"Xopamp:3" "I"
"Xopamp:4" "I"
"Xopamp:5" "I"
"Xopamp:6" "I"
"dd" "V"
"net7" "V"
"inp" "V"
"in" "V"
"inn" "V"
"out" "V"
"Xopamp.net1" "V"
"Xopamp.net3" "V"
"Xopamp.net2" "V"
"Xopamp.net8" "V"
"vdd:p" "I"
"vin:p" "I"
"vip:p" "I"
VALUE
"v_in" 0.000000000000000e+00
"Xopamp:1" 1.210745547772211e-05
"Xopamp:2" -2.207757863440418e-05
"Xopamp:3" 0.000000000000000e+00
"Xopamp:4" 0.000000000000000e+00
"Xopamp:5" 9.999999999999997e-06
"Xopamp:6" -2.987607920976482e-08
"dd" 3.300000000000000e+00
"net7" 7.750793195005261e-01
"inp" 1.650000000000000e+00
"in" 0.000000000000000e+00
"inn" 2.987607920870600e-01
"out" 3.286368712957660e+00
"Xopamp.net1" 3.007526892183403e+00
"Xopamp.net3" 3.540457818450603e-07
"Xopamp.net2" 3.934933345122424e-07
"Xopamp.net8" 3.934933345122424e-07
"vdd:p" -2.210745471361288e-05
"vin:p" 2.987607920870600e-08
"vip:p" 0.000000000000000e+00
"v_in" 1.000000000000000e-02
"Xopamp:1" 1.210738116061830e-05
"Xopamp:2" -2.207759598867849e-05
"Xopamp:3" 0.000000000000000e+00
"Xopamp:4" -6.462348535570529e-27
"Xopamp:5" 9.999999999999997e-06
"Xopamp:6" -2.978517110426701e-08
"dd" 3.300000000000000e+00
"net7" 7.750793195005261e-01
"inp" 1.650000000000000e+00
"in" 1.000000000000000e-02
"inn" 3.078517104817740e-01
"out" 3.286368815299514e+00
"Xopamp.net1" 2.999182711908845e+00
"Xopamp.net3" 4.374701030240638e-07
"Xopamp.net2" 4.858487902072487e-07
"Xopamp.net8" 4.858487902072487e-07
"vdd:p" -2.210738115972678e-05
"vin:p" 2.978517104817740e-08
"vip:p" 0.000000000000000e+00
"v_in" 2.000000000000000e-02
"Xopamp:1" 1.210731224767317e-05
"Xopamp:2" -2.207761798455388e-05
"Xopamp:3" 0.000000000000000e+00
"Xopamp:4" -6.462348535570529e-27
"Xopamp:5" 9.999999999999997e-06
"Xopamp:6" -2.969426295801846e-08
"dd" 3.300000000000000e+00
"net7" 7.750793195005261e-01
"inp" 1.650000000000000e+00
"in" 2.000000000000000e-02
"inn" 3.169426288695302e-01
"out" 3.286368917564832e+00
"Xopamp.net1" 2.990262688600924e+00
"Xopamp.net3" 5.433186653368457e-07
"Xopamp.net2" 6.030291877466603e-07
"Xopamp.net8" 6.030291877466603e-07
"vdd:p" -2.210731224744101e-05
"vin:p" 2.969426288695302e-08
"vip:p" 0.000000000000000e+00
"v_in" 3.000000000000000e-02
"Xopamp:1" 1.210724922352222e-05
"Xopamp:2" -2.207764586857225e-05
"Xopamp:3" 0.000000000000000e+00
"Xopamp:4" 1.292469707114106e-26
"Xopamp:5" 9.999999999999997e-06
"Xopamp:6" -2.960335481492425e-08
"dd" 3.300000000000000e+00
"net7" 7.750793195005261e-01
"inp" 1.650000000000000e+00
"in" 3.000000000000000e-02
"inn" 3.260335472484547e-01
"out" 3.286369019733002e+00
"Xopamp.net1" 2.981222294317552e+00
"Xopamp.net3" 6.776137710516400e-07
"Xopamp.net2" 7.517013699651248e-07
"Xopamp.net8" 7.517013699651248e-07
"vdd:p" -2.210724922329739e-05
"vin:p" 2.960335472484547e-08
"vip:p" 0.000000000000000e+00
"v_in" 4.000000000000000e-02
"Xopamp:1" 1.210719366058272e-05
"Xopamp:2" -2.207768121379318e-05
"Xopamp:3" 0.000000000000000e+00
"Xopamp:4" 0.000000000000000e+00
"Xopamp:5" 9.999999999999997e-06
"Xopamp:6" -2.951244667568912e-08
"dd" 3.300000000000000e+00
"net7" 7.750793195005261e-01
"inp" 1.650000000000000e+00
"in" 4.000000000000000e-02
"inn" 3.351244656161883e-01
"out" 3.286369121778071e+00
"Xopamp.net1" 2.972083565590601e+00
"Xopamp.net3" 8.479552460595298e-07
"Xopamp.net2" 9.402784081138227e-07
"Xopamp.net8" 9.402784081138227e-07
"vdd:p" -2.210719366035527e-05
"vin:p" 2.951244656161883e-08
"vip:p" 0.000000000000000e+00
"v_in" 5.000000000000000e-02
"Xopamp:1" 1.210714754880643e-05
"Xopamp:2" -2.207772601016777e-05
"Xopamp:3" 0.000000000000000e+00
"Xopamp:4" 0.000000000000000e+00
"Xopamp:5" 9.999999999999997e-06
"Xopamp:6" -2.942153854157008e-08
"dd" 3.300000000000000e+00
"net7" 7.750793195005261e-01
"inp" 1.650000000000000e+00
"in" 5.000000000000000e-02
"inn" 3.442153839697467e-01
"out" 3.286369223667213e+00
"Xopamp.net1" 2.962864061524403e+00
"Xopamp.net3" 1.063957096357996e-06
"Xopamp.net2" 1.179402988959271e-06
"Xopamp.net8" 1.179402988959271e-06
"vdd:p" -2.210714754856553e-05
"vin:p" 2.942153839697467e-08
"vip:p" 0.000000000000000e+00
"v_in" 6.000000000000000e-02
"Xopamp:1" 1.210711340413110e-05
"Xopamp:2" -2.207778277363298e-05
"Xopamp:3" 0.000000000000000e+00
"Xopamp:4" -2.584939414228211e-26
"Xopamp:5" 9.999999999999997e-06
"Xopamp:6" -2.933063041371061e-08
"dd" 3.300000000000000e+00
"net7" 7.750793195005261e-01
"inp" 1.650000000000000e+00
"in" 6.000000000000000e-02
"inn" 3.533063023053565e-01
"out" 3.286369325358921e+00
"Xopamp.net1" 2.953577773442454e+00
"Xopamp.net3" 1.337774636200024e-06
"Xopamp.net2" 1.482530897269308e-06
"Xopamp.net8" 1.482530897269308e-06
"vdd:p" -2.210711340386475e-05
"vin:p" 2.933063023053565e-08
"vip:p" 0.000000000000000e+00
"v_in" 7.000000000000001e-02
"Xopamp:1" 1.210709440552206e-05
"Xopamp:2" -2.207785468315324e-05
"Xopamp:3" 0.000000000000000e+00
"Xopamp:4" -2.584939414228211e-26
"Xopamp:5" 9.999999999999999e-06
"Xopamp:6" -2.923972229328131e-08
"dd" 3.300000000000000e+00
"net7" 7.750793195005261e-01
"inp" 1.650000000000000e+00
"in" 7.000000000000001e-02
"inn" 3.623972206182504e-01
"out" 3.286369426800754e+00
"Xopamp.net1" 2.944235704724186e+00
"Xopamp.net3" 1.684766683260929e-06
"Xopamp.net2" 1.866663995554294e-06
"Xopamp.net8" 1.866663995554294e-06
"vdd:p" -2.210709440521708e-05
"vin:p" 2.923972206182504e-08
"vip:p" 0.000000000000000e+00
"v_in" 8.000000000000000e-02
"Xopamp:1" 1.210709456687933e-05
"Xopamp:2" -2.207794575262586e-05
"Xopamp:3" 0.000000000000000e+00
"Xopamp:4" 0.000000000000000e+00
"Xopamp:5" 9.999999999999997e-06
"Xopamp:6" -2.914881418319597e-08
"dd" 3.300000000000000e+00
"net7" 7.750793195005261e-01
"inp" 1.650000000000000e+00
"in" 8.000000000000000e-02
"inn" 3.714881389024086e-01
"out" 3.286369527926494e+00
"Xopamp.net1" 2.934846388991684e+00
"Xopamp.net3" 2.124326261739876e-06
"Xopamp.net2" 2.353269710833168e-06
"Xopamp.net8" 2.353269710833168e-06
"vdd:p" -2.210709456651933e-05
"vin:p" 2.914881389024085e-08
"vip:p" 0.000000000000000e+00
"v_in" 9.000000000000000e-02
"Xopamp:1" 1.210711895232345e-05
"Xopamp:2" -2.207806104616952e-05
"Xopamp:3" 0.000000000000000e+00
"Xopamp:4" 0.000000000000000e+00
"Xopamp:5" 9.999999999999999e-06
"Xopamp:6" -2.905790608528759e-08
"dd" 3.300000000000000e+00
"net7" 7.750793195005261e-01
"inp" 1.650000000000000e+00
"in" 9.000000000000000e-02
"inn" 3.805790571502363e-01
"out" 3.286369628652599e+00
"Xopamp.net1" 2.925416338723621e+00
"Xopamp.net3" 2.680921023232092e-06
"Xopamp.net2" 2.969432634302816e-06
"Xopamp.net8" 2.969432634302816e-06
"vdd:p" -2.210711895188973e-05
"vin:p" 2.905790571502362e-08
"vip:p" 0.000000000000000e+00
"v_in" 9.999999999999999e-02
"Xopamp:1" 1.210717394533041e-05
"Xopamp:2" -2.207820694725664e-05
"Xopamp:3" 0.000000000000000e+00
"Xopamp:4" 0.000000000000000e+00
"Xopamp:5" 9.999999999999997e-06
"Xopamp:6" -2.896699800274268e-08
"dd" 3.300000000000000e+00
"net7" 7.750793195005261e-01
"inp" 1.650000000000000e+00
"in" 9.999999999999999e-02
"inn" 3.896699753521600e-01
"out" 3.286369728873760e+00
"Xopamp.net1" 2.915950425651444e+00
"Xopamp.net3" 3.385393991862677e-06
"Xopamp.net2" 3.749294234668883e-06
"Xopamp.net8" 3.749294234668883e-06
"vdd:p" -2.210717394480014e-05
"vin:p" 2.896699753521600e-08
"vip:p" 0.000000000000000e+00
"v_in" 1.100000000000000e-01
"Xopamp:1" 1.210726758448925e-05
"Xopamp:2" -2.207839149447095e-05
"Xopamp:3" 0.000000000000000e+00
"Xopamp:4" 0.000000000000000e+00
"Xopamp:5" 9.999999999999999e-06
"Xopamp:6" -2.887608994007764e-08
"dd" 3.300000000000000e+00
"net7" 7.750793195005261e-01
"inp" 1.650000000000000e+00
"in" 1.100000000000000e-01
"inn" 3.987608934961239e-01
"out" 3.286369828457363e+00
"Xopamp.net1" 2.906452199472091e+00
"Xopamp.net3" 4.276586504805716e-06
"Xopamp.net2" 4.735849150284568e-06
"Xopamp.net8" 4.735849150284568e-06
"vdd:p" -2.210726758383379e-05
"vin:p" 2.887608934961239e-08
"vip:p" 0.000000000000000e+00
"v_in" 1.200000000000000e-01
"Xopamp:1" 1.210740998142536e-05
"Xopamp:2" -2.207862479943215e-05
"Xopamp:3" 0.000000000000000e+00
"Xopamp:4" 0.000000000000000e+00
"Xopamp:5" 9.999999999999997e-06
"Xopamp:6" -2.878518190157676e-08
"dd" 3.300000000000000e+00
"net7" 7.750793195005261e-01
"inp" 1.650000000000000e+00
"in" 1.200000000000000e-01
"inn" 4.078518115669626e-01
"out" 3.286369927236588e+00
"Xopamp.net1" 2.896924153869306e+00
"Xopamp.net3" 5.403358615762376e-06
"Xopamp.net2" 5.983181337882794e-06
"Xopamp.net8" 5.983181337882794e-06
"vdd:p" -2.210740998060993e-05
"vin:p" 2.878518115669626e-08
"vip:p" 0.000000000000000e+00
"v_in" 1.300000000000000e-01
"Xopamp:1" 1.210761383967947e-05
"Xopamp:2" -2.207891956567279e-05
"Xopamp:3" 0.000000000000000e+00
"Xopamp:4" 1.033975765691285e-25
"Xopamp:5" 9.999999999999999e-06
"Xopamp:6" -2.869427389317265e-08
"dd" 3.300000000000000e+00
"net7" 7.750793195005261e-01
"inp" 1.650000000000000e+00
"in" 1.300000000000000e-01
"inn" 4.169427295456226e-01
"out" 3.286370025001849e+00
"Xopamp.net1" 2.887367949652813e+00
"Xopamp.net3" 6.827098012194490e-06
"Xopamp.net2" 7.559240813048952e-06
"Xopamp.net8" 7.559240813048952e-06
"vdd:p" -2.210761383866086e-05
"vin:p" 2.869427295456226e-08
"vip:p" 0.000000000000000e+00
"v_in" 1.400000000000000e-01
"Xopamp:1" 1.210789509709708e-05
"Xopamp:2" -2.207929173102725e-05
"Xopamp:3" 0.000000000000000e+00
"Xopamp:4" 0.000000000000000e+00
"Xopamp:5" 9.999999999999997e-06
"Xopamp:6" -2.860336592247167e-08
"dd" 3.300000000000000e+00
"net7" 7.750793195005261e-01
"inp" 1.650000000000000e+00
"in" 1.400000000000000e-01
"inn" 4.260336474081986e-01
"out" 3.286370121490184e+00
"Xopamp.net1" 2.877784604726565e+00
"Xopamp.net3" 8.624826893769224e-06
"Xopamp.net2" 9.549282049263446e-06
"Xopamp.net8" 9.549282049263446e-06
"vdd:p" -2.210789509582123e-05
"vin:p" 2.860336474081986e-08
"vip:p" 0.000000000000000e+00
"v_in" 1.500000000000000e-01
"Xopamp:1" 1.210827371861842e-05
"Xopamp:2" -2.207976126042199e-05
"Xopamp:3" 0.000000000000000e+00
"Xopamp:4" 0.000000000000000e+00
"Xopamp:5" 9.999999999999999e-06
"Xopamp:6" -2.851245799814405e-08
"dd" 3.300000000000000e+00
"net7" 7.750793195005261e-01
"inp" 1.650000000000000e+00
"in" 1.500000000000000e-01
"inn" 4.351245651247427e-01
"out" 3.286370216372170e+00
"Xopamp.net1" 2.868174660029756e+00
"Xopamp.net3" 1.089303743916760e-05
"Xopamp.net2" 1.206010851090296e-05
"Xopamp.net8" 1.206010851090296e-05
"vdd:p" -2.210827371701858e-05
"vin:p" 2.851245651247427e-08
"vip:p" 0.000000000000000e+00
"v_in" 1.600000000000000e-01
"Xopamp:1" 1.210877467125338e-05
"Xopamp:2" -2.208035312084756e-05
"Xopamp:3" 0.000000000000000e+00
"Xopamp:4" 0.000000000000000e+00
"Xopamp:5" 9.999999999999999e-06
"Xopamp:6" -2.842155013198049e-08
"dd" 3.300000000000000e+00
"net7" 7.750793195005261e-01
"inp" 1.650000000000000e+00
"in" 1.600000000000000e-01
"inn" 4.442154826578006e-01
"out" 3.286370309235807e+00
"Xopamp.net1" 2.858538329797188e+00
"Xopamp.net3" 1.375241051701613e-05
"Xopamp.net2" 1.522529432949450e-05
"Xopamp.net8" 1.522529432949450e-05
"vdd:p" -2.210877466924608e-05
"vin:p" 2.842154826578006e-08
"vip:p" 0.000000000000000e+00
"v_in" 1.700000000000000e-01
"Xopamp:1" 1.210942911843616e-05
"Xopamp:2" -2.208109847571439e-05
"Xopamp:3" 0.000000000000000e+00
"Xopamp:4" 2.067951531382569e-25
"Xopamp:5" 9.999999999999997e-06
"Xopamp:6" -2.833064233695584e-08
"dd" 3.300000000000000e+00
"net7" 7.750793195005261e-01
"inp" 1.650000000000000e+00
"in" 1.700000000000000e-01
"inn" 4.533063999606170e-01
"out" 3.286370399566787e+00
"Xopamp.net1" 2.848875643546657e+00
"Xopamp.net3" 1.735359911060908e-05
"Xopamp.net2" 1.921158372342560e-05
"Xopamp.net8" 1.921158372342560e-05
"vdd:p" -2.210942911591935e-05
"vin:p" 2.833063999606170e-08
"vip:p" 0.000000000000000e+00
"v_in" 1.800000000000000e-01
"Xopamp:1" 1.211027587684596e-05
"Xopamp:2" -2.208203614167069e-05
"Xopamp:3" 0.000000000000000e+00
"Xopamp:4" 0.000000000000000e+00
"Xopamp:5" 9.999999999999999e-06
"Xopamp:6" -2.823973462860807e-08
"dd" 3.300000000000000e+00
"net7" 7.750793195005261e-01
"inp" 1.650000000000000e+00
"in" 1.800000000000000e-01
"inn" 4.623973169749454e-01
"out" 3.286370486724400e+00
"Xopamp.net1" 2.839186586091309e+00
"Xopamp.net3" 2.188428725241317e-05
"Xopamp.net2" 2.422670109029490e-05
"Xopamp.net8" 2.422670109029490e-05
"vdd:p" -2.211027587369591e-05
"vin:p" 2.823973169749454e-08
"vip:p" 0.000000000000000e+00
"v_in" 1.900000000000000e-01
"Xopamp:1" 1.211136318496064e-05
"Xopamp:2" -2.208321435715166e-05
"Xopamp:3" 0.000000000000000e+00
"Xopamp:4" 0.000000000000000e+00
"Xopamp:5" 9.999999999999999e-06
"Xopamp:6" -2.814882702757598e-08
"dd" 3.300000000000000e+00
"net7" 7.750793195005261e-01
"inp" 1.650000000000000e+00
"in" 1.900000000000000e-01
"inn" 4.714882336283874e-01
"out" 3.286370569912262e+00
"Xopamp.net1" 2.829471240472394e+00
"Xopamp.net3" 2.757776661434588e-05
"Xopamp.net2" 3.052883920881551e-05
"Xopamp.net8" 3.052883920881551e-05
"vdd:p" -2.211136318102688e-05
"vin:p" 2.814882336283874e-08
"vip:p" 0.000000000000000e+00
"v_in" 2.000000000000000e-01
"Xopamp:1" 1.211275083890686e-05
"Xopamp:2" -2.208469291822933e-05
"Xopamp:3" 0.000000000000000e+00
"Xopamp:4" 0.000000000000000e+00
"Xopamp:5" 9.999999999999999e-06
"Xopamp:6" -2.805791955692429e-08
"dd" 3.300000000000000e+00
"net7" 7.750793195005261e-01
"inp" 1.650000000000000e+00
"in" 2.000000000000000e-01
"inn" 4.805791498311758e-01
"out" 3.286370648142933e+00
"Xopamp.net1" 2.819729936814458e+00
"Xopamp.net3" 3.472330549789399e-05
"Xopamp.net2" 3.843812877699552e-05
"Xopamp.net8" 3.843812877699552e-05
"vdd:p" -2.211275083401057e-05
"vin:p" 2.805791498311758e-08
"vip:p" 0.000000000000000e+00
"v_in" 2.100000000000000e-01
"Xopamp:1" 1.211451275730806e-05
"Xopamp:2" -2.208654574345449e-05
"Xopamp:3" 0.000000000000000e+00
"Xopamp:4" 0.000000000000000e+00
"Xopamp:5" 9.999999999999999e-06
"Xopamp:6" -2.796701224342601e-08
"dd" 3.300000000000000e+00
"net7" 7.750793195005261e-01
"inp" 1.650000000000000e+00
"in" 2.100000000000000e-01
"inn" 4.896700654723067e-01
"out" 3.286370720195373e+00
"Xopamp.net1" 2.809963407474193e+00
"Xopamp.net3" 4.367861779257448e-05
"Xopamp.net2" 4.835042844909238e-05
"Xopamp.net8" 4.835042844909238e-05
"vdd:p" -2.211451275123988e-05
"vin:p" 2.796700654723066e-08
"vip:p" 0.000000000000000e+00
"v_in" 2.200000000000001e-01
"Xopamp:1" 1.211674004240649e-05
"Xopamp:2" -2.208886393496768e-05
"Xopamp:3" 0.000000000000000e+00
"Xopamp:4" 0.000000000000000e+00
"Xopamp:5" 9.999999999999999e-06
"Xopamp:6" -2.787610512077611e-08
"dd" 3.300000000000000e+00
"net7" 7.750793195005261e-01
"inp" 1.650000000000000e+00
"in" 2.200000000000001e-01
"inn" 4.987609804149153e-01
"out" 3.286370784564068e+00
"Xopamp.net1" 2.800172945242206e+00
"Xopamp.net3" 5.488477127703457e-05
"Xopamp.net2" 6.075380914437973e-05
"Xopamp.net8" 6.075380914437973e-05
"vdd:p" -2.211674003492149e-05
"vin:p" 2.787609804149153e-08
"vip:p" 0.000000000000000e+00
"v_in" 2.300000000000001e-01
"Xopamp:1" 1.211954460935823e-05
"Xopamp:2" -2.209175940778475e-05
"Xopamp:3" 0.000000000000000e+00
"Xopamp:4" 0.000000000000000e+00
"Xopamp:5" 9.999999999999999e-06
"Xopamp:6" -2.778519822587305e-08
"dd" 3.300000000000000e+00
"net7" 7.750793195005261e-01
"inp" 1.650000000000000e+00
"in" 2.300000000000001e-01
"inn" 5.078518944907817e-01
"out" 3.286370839398598e+00
"Xopamp.net1" 2.790360556619643e+00
"Xopamp.net3" 6.888390411324145e-05
"Xopamp.net2" 7.624813821988381e-05
"Xopamp.net8" 7.624813821988381e-05
"vdd:p" -2.211954460017331e-05
"vin:p" 2.778518944907817e-08
"vip:p" 0.000000000000000e+00
"v_in" 2.400000000000001e-01
"Xopamp:1" 1.212306345884730e-05
"Xopamp:2" -2.209536916238547e-05
"Xopamp:3" 0.000000000000000e+00
"Xopamp:4" 0.000000000000000e+00
"Xopamp:5" 9.999999999999999e-06
"Xopamp:6" -2.769429160291329e-08
"dd" 3.300000000000000e+00
"net7" 7.750793195005261e-01
"inp" 1.650000000000000e+00
"in" 2.400000000000001e-01
"inn" 5.169428074938431e-01
"out" 3.286370882432273e+00
"Xopamp.net1" 2.780529096439495e+00
"Xopamp.net3" 8.634014434000840e-05
"Xopamp.net2" 9.556819669248098e-05
"Xopamp.net8" 9.556819669248098e-05
"vdd:p" -2.212306344763010e-05
"vin:p" 2.769428074938430e-08
"vip:p" 0.000000000000000e+00
"v_in" 2.500000000000001e-01
"Xopamp:1" 1.212746366950746e-05
"Xopamp:2" -2.209986027710342e-05
"Xopamp:3" 0.000000000000000e+00
"Xopamp:4" 0.000000000000000e+00
"Xopamp:5" 9.999999999999999e-06
"Xopamp:6" -2.760338530179726e-08
"dd" 3.300000000000000e+00
"net7" 7.750793195005261e-01
"inp" 1.650000000000000e+00
"in" 2.500000000000001e-01
"inn" 5.260337191725853e-01
"out" 3.286370910898438e+00
"Xopamp.net1" 2.770682363908625e+00
"Xopamp.net3" 1.080641488312994e-04
"Xopamp.net2" 1.196107851335739e-04
"Xopamp.net8" 1.196107851335739e-04
"vdd:p" -2.212746365585729e-05
"vin:p" 2.760337191725853e-08
"vip:p" 0.000000000000000e+00
"v_in" 2.600000000000001e-01
"Xopamp:1" 1.213294818576918e-05
"Xopamp:2" -2.210543569592207e-05
"Xopamp:3" 0.000000000000000e+00
"Xopamp:4" 0.000000000000000e+00
"Xopamp:5" 9.999999999999997e-06
"Xopamp:6" -2.751247937958956e-08
"dd" 3.300000000000000e+00
"net7" 7.750793195005261e-01
"inp" 1.650000000000000e+00
"in" 2.600000000000001e-01
"inn" 5.351246292211792e-01
"out" 3.286370921432970e+00
"Xopamp.net1" 2.760825134750860e+00
"Xopamp.net3" 1.350416954224378e-04
"Xopamp.net2" 1.494662908482945e-04
"Xopamp.net8" 1.494662908482945e-04
"vdd:p" -2.213294816918091e-05
"vin:p" 2.751246292211791e-08
"vip:p" 0.000000000000000e+00
"v_in" 2.700000000000001e-01
"Xopamp:1" 1.213976247318062e-05
"Xopamp:2" -2.211234088373010e-05
"Xopamp:3" 0.000000000000000e+00
"Xopamp:4" 0.000000000000000e+00
"Xopamp:5" 9.999999999999999e-06
"Xopamp:6" -2.742157390024457e-08
"dd" 3.300000000000000e+00
"net7" 7.750793195005261e-01
"inp" 1.650000000000000e+00
"in" 2.700000000000001e-01
"inn" 5.442155372692219e-01
"out" 3.286370909961440e+00
"Xopamp.net1" 2.750963101513902e+00
"Xopamp.net3" 1.684667753445663e-04
"Xopamp.net2" 1.864552010327659e-04
"Xopamp.net8" 1.864552010327659e-04
"vdd:p" -2.213976245298908e-05
"vin:p" 2.742155372692218e-08
"vip:p" 0.000000000000000e+00
"v_in" 2.800000000000001e-01
"Xopamp:1" 1.214820210655399e-05
"Xopamp:2" -2.212087141438879e-05
"Xopamp:3" 0.000000000000000e+00
"Xopamp:4" 0.000000000000000e+00
"Xopamp:5" 9.999999999999997e-06
"Xopamp:6" -2.733066893447259e-08
"dd" 3.300000000000000e+00
"net7" 7.750793195005261e-01
"inp" 1.650000000000000e+00
"in" 2.800000000000001e-01
"inn" 5.533064428699450e-01
"out" 3.286370871569393e+00
"Xopamp.net1" 2.741102696734071e+00
"Xopamp.net3" 2.097796437339360e-04
"Xopamp.net2" 2.321700546004325e-04
"Xopamp.net8" 2.321700546004325e-04
"vdd:p" -2.214820208186278e-05
"vin:p" 2.733064428699449e-08
"vip:p" 0.000000000000000e+00
"v_in" 2.900000000000001e-01
"Xopamp:1" 1.215862134555936e-05
"Xopamp:2" -2.213138154624374e-05
"Xopamp:3" 0.000000000000000e+00
"Xopamp:4" 0.000000000000000e+00
"Xopamp:5" 9.999999999999997e-06
"Xopamp:6" -2.723976455956539e-08
"dd" 3.300000000000000e+00
"net7" 7.750793195005261e-01
"inp" 1.650000000000000e+00
"in" 2.900000000000001e-01
"inn" 5.623973454867423e-01
"out" 3.286370800354164e+00
"Xopamp.net1" 2.731250783749534e+00
"Xopamp.net3" 2.607102940075107e-04
"Xopamp.net2" 2.885233291899292e-04
"Xopamp.net8" 2.885233291899292e-04
"vdd:p" -2.215862131517245e-05
"vin:p" 2.723973454867422e-08
"vip:p" 0.000000000000000e+00
"v_in" 3.000000000000001e-01
"Xopamp:1" 1.217144273585594e-05
"Xopamp:2" -2.214429382318175e-05
"Xopamp:3" 0.000000000000000e+00
"Xopamp:4" -6.617444900424221e-24
"Xopamp:5" 9.999999999999997e-06
"Xopamp:6" -2.714886086017543e-08
"dd" 3.300000000000000e+00
"net7" 7.750793195005261e-01
"inp" 1.650000000000000e+00
"in" 3.000000000000001e-01
"inn" 5.714882444778747e-01
"out" 3.286370689256621e+00
"Xopamp.net1" 2.721414218266785e+00
"Xopamp.net3" 3.233278244050534e-04
"Xopamp.net2" 3.578017557515533e-04
"Xopamp.net8" 3.578017557515533e-04
"vdd:p" -2.217144269824824e-05
"vin:p" 2.714882444778747e-08
"vip:p" 0.000000000000000e+00
"v_in" 3.100000000000001e-01
"Xopamp:1" 1.218716774798080e-05
"Xopamp:2" -2.216010971345909e-05
"Xopamp:3" 0.000000000000000e+00
"Xopamp:4" 0.000000000000000e+00
"Xopamp:5" 9.999999999999997e-06
"Xopamp:6" -2.705795792517510e-08
"dd" 3.300000000000000e+00
"net7" 7.750793195005261e-01
"inp" 1.650000000000000e+00
"in" 3.100000000000001e-01
"inn" 5.805791390792111e-01
"out" 3.286370529871321e+00
"Xopamp.net1" 2.711599308356259e+00
"Xopamp.net3" 4.000961522255124e-04
"Xopamp.net2" 4.427275295485678e-04
"Xopamp.net8" 4.427275295485678e-04
"vdd:p" -2.218716770135654e-05
"vin:p" 2.705791390792110e-08
"vip:p" 0.000000000000000e+00
"v_in" 3.200000000000001e-01
"Xopamp:1" 1.220638842468274e-05
"Xopamp:2" -2.217942125695349e-05
"Xopamp:3" 0.000000000000000e+00
"Xopamp:4" -6.617444900424221e-24
"Xopamp:5" 9.999999999999997e-06
"Xopamp:6" -2.696705585035537e-08
"dd" 3.300000000000000e+00
"net7" 7.750793195005261e-01
"inp" 1.650000000000000e+00
"in" 3.200000000000001e-01
"inn" 5.896700283848788e-01
"out" 3.286370312233665e+00
"Xopamp.net1" 2.701811226236438e+00
"Xopamp.net3" 4.939364815826077e-04
"Xopamp.net2" 5.465268185034788e-04
"Xopamp.net8" 5.465268185034788e-04
"vdd:p" -2.220638836714407e-05
"vin:p" 2.696700283848787e-08
"vip:p" 0.000000000000000e+00
"v_in" 3.300000000000001e-01
"Xopamp:1" 1.222979993983299e-05
"Xopamp:2" -2.220292362392358e-05
"Xopamp:3" 0.000000000000000e+00
"Xopamp:4" 0.000000000000000e+00
"Xopamp:5" 9.999999999999999e-06
"Xopamp:6" -2.687615473189005e-08
"dd" 3.300000000000000e+00
"net7" 7.750793195005261e-01
"inp" 1.650000000000000e+00
"in" 3.300000000000001e-01
"inn" 5.987609113257401e-01
"out" 3.286370024583139e+00
"Xopamp.net1" 2.692053444761712e+00
"Xopamp.net3" 6.082968048607642e-04
"Xopamp.net2" 6.730058132753635e-04
"Xopamp.net8" 6.730058132753635e-04
"vdd:p" -2.222979986964095e-05
"vin:p" 2.687609113257398e-08
"vip:p" 0.000000000000000e+00
"v_in" 3.400000000000001e-01
"Xopamp:1" 1.225821386355373e-05
"Xopamp:2" -2.223142837981413e-05
"Xopamp:3" 0.000000000000000e+00
"Xopamp:4" 0.000000000000000e+00
"Xopamp:5" 9.999999999999999e-06
"Xopamp:6" -2.678525466812644e-08
"dd" 3.300000000000000e+00
"net7" 7.750793195005261e-01
"inp" 1.650000000000000e+00
"in" 3.400000000000001e-01
"inn" 6.078517866456878e-01
"out" 3.286369653102564e+00
"Xopamp.net1" 2.682327278284597e+00
"Xopamp.net3" 7.472284559447854e-04
"Xopamp.net2" 8.266342500956690e-04
"Xopamp.net8" 8.266342500956690e-04
"vdd:p" -2.225821377936690e-05
"vin:p" 2.678517866456876e-08
"vip:p" 0.000000000000000e+00
"v_in" 3.500000000000001e-01
"Xopamp:1" 1.229257175937300e-05
"Xopamp:2" -2.226587708187691e-05
"Xopamp:3" 0.000000000000000e+00
"Xopamp:4" 0.000000000000000e+00
"Xopamp:5" 9.999999999999997e-06
"Xopamp:6" -2.669435574867554e-08
"dd" 3.300000000000000e+00
"net7" 7.750793195005261e-01
"inp" 1.650000000000000e+00
"in" 3.500000000000001e-01
"inn" 6.169426528759084e-01
"out" 3.286369181634991e+00
"Xopamp.net1" 2.672631598476949e+00
"Xopamp.net3" 9.154692530655049e-04
"Xopamp.net2" 1.012635775777822e-03
"Xopamp.net8" 1.012635775777822e-03
"vdd:p" -2.229257166030997e-05
"vin:p" 2.669426528759082e-08
"vip:p" 0.000000000000000e+00
"v_in" 3.600000000000002e-01
"Xopamp:1" 1.233395848924351e-05
"Xopamp:2" -2.230735458345286e-05
"Xopamp:3" 0.000000000000000e+00
"Xopamp:4" 0.000000000000000e+00
"Xopamp:5" 9.999999999999999e-06
"Xopamp:6" -2.660345805199462e-08
"dd" 3.300000000000000e+00
"net7" 7.750793195005261e-01
"inp" 1.650000000000000e+00
"in" 3.600000000000002e-01
"inn" 6.260335083075008e-01
"out" 3.286368591382507e+00
"Xopamp.net1" 2.662962772984249e+00
"Xopamp.net3" 1.118531977206121e-03
"Xopamp.net2" 1.237083610277314e-03
"Xopamp.net8" 1.237083610277314e-03
"vdd:p" -2.233395837460913e-05
"vin:p" 2.660335083075006e-08
"vip:p" 0.000000000000000e+00
"v_in" 3.700000000000002e-01
"Xopamp:1" 1.238361425430472e-05
"Xopamp:2" -2.235710107397774e-05
"Xopamp:3" 0.000000000000000e+00
"Xopamp:4" 2.646977960169689e-23
"Xopamp:5" 9.999999999999997e-06
"Xopamp:6" -2.651256162778928e-08
"dd" 3.300000000000000e+00
"net7" 7.750793195005261e-01
"inp" 1.650000000000000e+00
"in" 3.700000000000002e-01
"inn" 6.351243509632156e-01
"out" 3.286367860595370e+00
"Xopamp.net1" 2.653314844955271e+00
"Xopamp.net3" 1.362795745922655e-03
"Xopamp.net2" 1.506998604586693e-03
"Xopamp.net8" 1.506998604586693e-03
"vdd:p" -2.238361412296601e-05
"vin:p" 2.651243509632155e-08
"vip:p" 0.000000000000000e+00
"v_in" 3.800000000000002e-01
"Xopamp:1" 1.244294395097248e-05
"Xopamp:2" -2.241652143454839e-05
"Xopamp:3" 0.000000000000000e+00
"Xopamp:4" 0.000000000000000e+00
"Xopamp:5" 9.999999999999997e-06
"Xopamp:6" -2.642166648382003e-08
"dd" 3.300000000000000e+00
"net7" 7.750793195005261e-01
"inp" 1.650000000000000e+00
"in" 3.800000000000002e-01
"inn" 6.442151785695746e-01
"out" 3.286366964265317e+00
"Xopamp.net1" 2.643679942290517e+00
"Xopamp.net3" 1.655596230051340e-03
"Xopamp.net2" 1.830444956818072e-03
"Xopamp.net8" 1.830444956818072e-03
"vdd:p" -2.244294380054863e-05
"vin:p" 2.642151785695743e-08
"vip:p" 0.000000000000000e+00
"v_in" 3.900000000000002e-01
"Xopamp:1" 1.251352189797930e-05
"Xopamp:2" -2.248718996499788e-05
"Xopamp:3" 0.000000000000000e+00
"Xopamp:4" 2.646977960169689e-23
"Xopamp:5" 9.999999999999999e-06
"Xopamp:6" -2.633077256023383e-08
"dd" 3.300000000000000e+00
"net7" 7.750793195005261e-01
"inp" 1.650000000000000e+00
"in" 3.900000000000002e-01
"inn" 6.533059885312449e-01
"out" 3.286365873843692e+00
"Xopamp.net1" 2.634048882668892e+00
"Xopamp.net3" 2.005308693830948e-03
"Xopamp.net2" 2.216616620409329e-03
"Xopamp.net8" 2.216616620409329e-03
"vdd:p" -2.251352172421669e-05
"vin:p" 2.633059885312447e-08
"vip:p" 0.000000000000000e+00
"v_in" 4.000000000000002e-01
"Xopamp:1" 1.259708945635774e-05
"Xopamp:2" -2.257084800469656e-05
"Xopamp:3" 0.000000000000000e+00
"Xopamp:4" 0.000000000000000e+00
"Xopamp:5" 9.999999999999997e-06
"Xopamp:6" -2.623987970180003e-08
"dd" 3.300000000000000e+00
"net7" 7.750793195005261e-01
"inp" 1.650000000000000e+00
"in" 4.000000000000002e-01
"inn" 6.623967779101942e-01
"out" 3.286364557012134e+00
"Xopamp.net1" 2.624411926224709e+00
"Xopamp.net3" 2.421415748608717e-03
"Xopamp.net2" 2.675905078456318e-03
"Xopamp.net8" 2.675905078456318e-03
"vdd:p" -2.259708925311657e-05
"vin:p" 2.623967779101940e-08
"vip:p" 0.000000000000000e+00
"v_in" 4.100000000000002e-01
"Xopamp:1" 1.269554263610938e-05
"Xopamp:2" -2.266939154088597e-05
"Xopamp:3" 0.000000000000000e+00
"Xopamp:4" 0.000000000000000e+00
"Xopamp:5" 9.999999999999999e-06
"Xopamp:6" -2.614898762648376e-08
"dd" 3.300000000000000e+00
"net7" 7.750793195005261e-01
"inp" 1.650000000000000e+00
"in" 4.100000000000002e-01
"inn" 6.714875434127024e-01
"out" 3.286362977539724e+00
"Xopamp.net1" 2.614759621191380e+00
"Xopamp.net3" 2.914549922028818e-03
"Xopamp.net2" 3.219937148790506e-03
"Xopamp.net8" 3.219937148790506e-03
"vdd:p" -2.269554239625532e-05
"vin:p" 2.614875434127022e-08
"vip:p" 0.000000000000000e+00
"v_in" 4.200000000000002e-01
"Xopamp:1" 1.281090661991337e-05
"Xopamp:2" -2.278484573473389e-05
"Xopamp:3" 0.000000000000000e+00
"Xopamp:4" 0.000000000000000e+00
"Xopamp:5" 9.999999999999997e-06
"Xopamp:6" -2.605809589270473e-08
"dd" 3.300000000000000e+00
"net7" 7.750793195005261e-01
"inp" 1.650000000000000e+00
"in" 4.200000000000002e-01
"inn" 6.805782813875924e-01
"out" 3.286361095263514e+00
"Xopamp.net1" 2.605083686515062e+00
"Xopamp.net3" 3.496500261311245e-03
"Xopamp.net2" 3.861570506442312e-03
"Xopamp.net8" 3.861570506442312e-03
"vdd:p" -2.281090633706409e-05
"vin:p" 2.605782813875922e-08
"vip:p" 0.000000000000000e+00
"v_in" 4.300000000000002e-01
"Xopamp:1" 1.294529441321535e-05
"Xopamp:2" -2.291932357406151e-05
"Xopamp:3" 0.000000000000000e+00
"Xopamp:4" 0.000000000000000e+00
"Xopamp:5" 9.999999999999997e-06
"Xopamp:6" -2.596720387629961e-08
"dd" 3.300000000000000e+00
"net7" 7.750793195005261e-01
"inp" 1.650000000000000e+00
"in" 4.300000000000002e-01
"inn" 6.896689878388153e-01
"out" 3.286358866226966e+00
"Xopamp.net1" 2.595377877292036e+00
"Xopamp.net3" 4.180172893297916e-03
"Xopamp.net2" 4.614835433031522e-03
"Xopamp.net8" 4.614835433031522e-03
"vdd:p" -2.294529408382737e-05
"vin:p" 2.596689878388150e-08
"vip:p" 0.000000000000000e+00
"v_in" 4.400000000000002e-01
"Xopamp:1" 1.310084769696311e-05
"Xopamp:2" -2.307496672848459e-05
"Xopamp:3" 0.000000000000000e+00
"Xopamp:4" 0.000000000000000e+00
"Xopamp:5" 9.999999999999997e-06
"Xopamp:6" -2.587631075833491e-08
"dd" 3.300000000000000e+00
"net7" 7.750793195005261e-01
"inp" 1.650000000000000e+00
"in" 4.400000000000002e-01
"inn" 6.987596584546470e-01
"out" 3.286356243001116e+00