HEADER
"PSFversion" "1.00"
"simulator" "spectre"
"version" "23.1.0.063"
"date" "10:03:28 AM, Thur Dec 19, 2024"
"design" ""
"analysis type" "tran"
"analysis name" "outtran1"
"analysis description" "Transient Analysis `outtran1': time = (0 s -> 1 us)"
"xVecSorted" "ascending"
"tolerance.relative" 0.00100000
"start" 0.00000
"outputstart" 0.00000
"stop" 1.00000e-06
"step" 1.00000e-09
"istep" 0.00100000
"maxstep" 2.00000e-08
"ic" "all"
"useprevic" "no"
"skipdc" "no"
"reltol" 0.00100000
"abstol(V)" 1.00000e-06
"abstol(I)" 1.00000e-12
"temp" 27.0000
"tnom" 27.0000
"tempeffects" "all"
"errpreset" "moderate"
"method" "traponly"
"lteratio" 14.0000
"relref" "sigglobal"
"cmin" 0.00000
"gmin" 1.00000e-12
"rabsshort" 0.00100000
TYPE
"sweep" FLOAT DOUBLE PROP(
"key" "sweep"
)
"LogicV" FLOAT DOUBLE PROP(
"key" "node"
)
"V" FLOAT DOUBLE PROP(
"units" "V"
"key" "node"
"tolerance" 1.00000e-06
)
"I" FLOAT DOUBLE PROP(
"units" "A"
"key" "branch"
"tolerance" 1.00000e-12
)
"MMF" FLOAT DOUBLE PROP(
"units" "A*turn"
"key" "node"
"tolerance" 1.00000e-12
)
"Wb" FLOAT DOUBLE PROP(
"units" "Wb"
"key" "node"
"tolerance" 1.00000e-09
)
"Temp" FLOAT DOUBLE PROP(
"units" "C"
"key" "node"
"tolerance" 0.000100000
)
"Pwr" FLOAT DOUBLE PROP(
"units" "W"
"key" "node"
"tolerance" 1.00000e-09
)
"U" FLOAT DOUBLE PROP(
"units" ""
"key" "node"
"tolerance" 1.00000e-06
)
"V/Sec" FLOAT DOUBLE PROP(
"units" "V/s"
"key" "node"
"tolerance" 0.000100000
)
"I/Sec" FLOAT DOUBLE PROP(
"units" "A/s"
"key" "node"
"tolerance" 1.00000e-06
)
"1/Sec" FLOAT DOUBLE PROP(
"units" "1/s"
"key" "node"
"tolerance" 0.000100000
)
"HOD" FLOAT DOUBLE PROP(
"units" ""
"key" "node"
"tolerance" 0.0100000
)
"Q" FLOAT DOUBLE PROP(
"units" "Coul"
"key" "node"
"tolerance" 1.00000e-15
)
SWEEP
"time" "sweep" PROP(
"sweep_direction" 0
"units" "s"
"plot" 0
"grid" 1
)
TRACE
"Xopamp:1" "I"
"Xopamp:2" "I"
"Xopamp:3" "I"
"Xopamp:4" "I"
"Xopamp:5" "I"
"Xopamp:6" "I"
"Xopamp.M1:1" "I"
"Xopamp.M1:2" "I"
"Xopamp.M1:3" "I"
"Xopamp.M1:4" "I"
"Xopamp.M2:1" "I"
"Xopamp.M2:2" "I"
"Xopamp.M2:3" "I"
"Xopamp.M2:4" "I"
"Xopamp.M3:1" "I"
"Xopamp.M3:2" "I"
"Xopamp.M3:3" "I"
"Xopamp.M3:4" "I"
"Xopamp.M4:1" "I"
"Xopamp.M4:2" "I"
"Xopamp.M4:3" "I"
"Xopamp.M4:4" "I"
"Xopamp.M5:1" "I"
"Xopamp.M5:2" "I"
"Xopamp.M5:3" "I"
"Xopamp.M5:4" "I"
"Xopamp.M6:1" "I"
"Xopamp.M6:2" "I"
"Xopamp.M6:3" "I"
"Xopamp.M6:4" "I"
"Xopamp.M7:1" "I"
"Xopamp.M7:2" "I"
"Xopamp.M7:3" "I"
"Xopamp.M7:4" "I"
"Xopamp.M8:1" "I"
"Xopamp.M8:2" "I"
"Xopamp.M8:3" "I"
"Xopamp.M8:4" "I"
"dd" "V"
"net7" "V"
"net8" "V"
"inp" "V"
"out" "V"
"Xopamp.net1" "V"
"Xopamp.net3" "V"
"Xopamp.net2" "V"
"Xopamp.net8" "V"
"vcm:p" "I"
"vdd:p" "I"
"vip:p" "I"
VALUE
"time" 0.000000000000000e+00
"Xopamp:1" 2.531628679811214e-05
"Xopamp:2" -3.531413039615462e-05
"Xopamp:3" 0.000000000000000e+00
"Xopamp:4" 0.000000000000000e+00
"Xopamp:5" 9.999999999999999e-06
"Xopamp:6" -1.950746988246886e-09
"Xopamp.M1:1" 5.036847479763409e-06
"Xopamp.M1:2" 0.000000000000000e+00
"Xopamp.M1:3" -5.036831095215281e-06
"Xopamp.M1:4" -1.638454812870935e-11
"Xopamp.M2:1" 5.040401584542211e-06
"Xopamp.M2:2" 0.000000000000000e+00
"Xopamp.M2:3" -5.040391075159796e-06
"Xopamp.M2:4" -1.050938241549585e-11
"Xopamp.M3:1" -5.036950030577373e-06
"Xopamp.M3:2" 0.000000000000000e+00
"Xopamp.M3:3" 5.036949071043081e-06
"Xopamp.M3:4" 9.595342924867945e-13
"Xopamp.M4:1" -5.040504822705039e-06
"Xopamp.M4:2" -8.470329472543003e-22
"Xopamp.M4:3" 5.040503788644125e-06
"Xopamp.M4:4" 1.034060914429577e-12
"Xopamp.M5:1" 1.007724919831315e-05
"Xopamp.M5:2" 0.000000000000000e+00
"Xopamp.M5:3" -1.007724812746442e-05
"Xopamp.M5:4" -1.070848728039481e-12
"Xopamp.M6:1" -1.523883194482972e-05
"Xopamp.M6:2" 0.000000000000000e+00
"Xopamp.M6:3" 1.523882731477393e-05
"Xopamp.M6:4" 4.630055795596839e-12
"Xopamp.M7:1" 1.523688119784148e-05
"Xopamp.M7:2" 1.694065894508601e-21
"Xopamp.M7:3" -1.523676525780552e-05
"Xopamp.M7:4" -1.159400359594518e-10
"Xopamp.M8:1" 9.999999999999996e-06
"Xopamp.M8:2" 1.694065894508601e-21
"Xopamp.M8:3" -9.999999430969699e-06
"Xopamp.M8:4" -5.690302969380259e-13
"dd" 3.300000000000000e+00
"net7" 5.690195099604625e-01
"net8" 1.650000000000000e+00
"inp" 1.650000000000000e+00
"out" 1.649909958747117e+00
"Xopamp.net1" 2.623752060078579e+00
"Xopamp.net3" 1.062595320803919e+00
"Xopamp.net2" 2.580056412174487e+00
"Xopamp.net8" 2.580056412174487e+00
"vcm:p" 0.000000000000000e+00
"vdd:p" -3.531413039634399e-05
"vip:p" 0.000000000000000e+00
"time" 1.000000000000000e-09
"Xopamp:1" 2.531600812282191e-05
"Xopamp:2" -3.531416565600041e-05
"Xopamp:3" -1.433408411491979e-11
"Xopamp:4" 1.851963134934285e-11
"Xopamp:5" 1.000000000000017e-05
"Xopamp:6" -1.846652368735188e-09
"Xopamp.M1:1" 5.036885595078275e-06
"Xopamp.M1:2" 1.851963134934285e-11
"Xopamp.M1:3" -5.036884980564304e-06
"Xopamp.M1:4" -1.913414532073640e-11
"Xopamp.M2:1" 5.040369518743018e-06
"Xopamp.M2:2" -1.433408411491979e-11
"Xopamp.M2:3" -5.040347356790741e-06
"Xopamp.M2:4" -7.827868159159801e-12
"Xopamp.M3:1" -5.036940925708734e-06
"Xopamp.M3:2" 2.893980371673005e-11
"Xopamp.M3:3" 5.036916764974534e-06
"Xopamp.M3:4" -4.779069513417891e-12
"Xopamp.M4:1" -5.040491900272722e-06
"Xopamp.M4:2" 2.639082664101357e-11
"Xopamp.M4:3" 5.040471456392929e-06
"Xopamp.M4:4" -5.946946864830429e-12
"Xopamp.M5:1" 1.007725929936852e-05
"Xopamp.M5:2" -4.721791193032486e-13
"Xopamp.M5:3" -1.007725395309936e-05
"Xopamp.M5:4" -4.874089968410918e-12
"Xopamp.M6:1" -1.523875957811117e-05
"Xopamp.M6:2" 1.289506403756442e-10
"Xopamp.M6:3" 1.523865540112294e-05
"Xopamp.M6:4" -2.477365211160920e-11
"Xopamp.M7:1" 1.523690635663187e-05
"Xopamp.M7:2" -6.248100880932016e-12
"Xopamp.M7:3" -1.523677408629625e-05
"Xopamp.M7:4" -1.260222346878836e-10
"Xopamp.M8:1" 1.000000235756654e-05
"Xopamp.M8:2" 4.362713623930994e-12
"Xopamp.M8:3" -1.000000518670841e-05
"Xopamp.M8:4" -1.533571724845098e-12
"dd" 3.300000000000000e+00
"net7" 5.690195234669954e-01
"net8" 1.650000000000000e+00
"inp" 1.650000000000000e+00
"out" 1.649910872813486e+00
"Xopamp.net1" 2.623752172099306e+00
"Xopamp.net3" 1.062595730021224e+00
"Xopamp.net2" 2.580056709998563e+00
"Xopamp.net8" 2.580057320268937e+00
"vcm:p" 1.433408412052348e-11
"vdd:p" -3.531600812282187e-05
"vip:p" 1.433408412052348e-11
"time" 3.000000000000000e-09
"Xopamp:1" 2.531584447318791e-05
"Xopamp:2" -3.531417194024231e-05
"Xopamp:3" -1.423631432253560e-11
"Xopamp:4" 1.611562333684214e-11
"Xopamp:5" 9.999999999999996e-06
"Xopamp:6" -1.674412254602073e-09
"Xopamp.M1:1" 5.036953796955388e-06
"Xopamp.M1:2" 1.611562333684214e-11
"Xopamp.M1:3" -5.036951376123475e-06
"Xopamp.M1:4" -1.853645525067977e-11
"Xopamp.M2:1" 5.040306773247715e-06
"Xopamp.M2:2" -1.423631432253560e-11
"Xopamp.M2:3" -5.040284442959139e-06
"Xopamp.M2:4" -8.093974253861140e-12
"Xopamp.M3:1" -5.036943051374321e-06
"Xopamp.M3:2" -2.304648564418311e-12
"Xopamp.M3:3" 5.036943939489633e-06
"Xopamp.M3:4" 1.416533247026337e-12
"Xopamp.M4:1" -5.040488592814391e-06
"Xopamp.M4:2" -8.440932488868407e-12
"Xopamp.M4:3" 5.040498553632688e-06
"Xopamp.M4:4" -1.519885808562227e-12
"Xopamp.M5:1" 1.007726244951211e-05
"Xopamp.M5:2" -1.641934280333447e-12
"Xopamp.M5:3" -1.007725626090734e-05
"Xopamp.M5:4" -4.546670509462110e-12
"Xopamp.M6:1" -1.523859859251942e-05
"Xopamp.M6:2" 1.965091012579892e-10
"Xopamp.M6:3" 1.523843591822704e-05
"Xopamp.M6:4" -3.383480889621658e-11
"Xopamp.M7:1" 1.523690949073015e-05
"Xopamp.M7:2" -6.989812390263309e-12
"Xopamp.M7:3" -1.523677766499271e-05
"Xopamp.M7:4" -1.248359250730137e-10
"Xopamp.M8:1" 1.000000552871022e-05
"Xopamp.M8:2" 3.103036448128368e-12
"Xopamp.M8:3" -1.000000737667381e-05
"Xopamp.M8:4" -1.255072870680919e-12
"dd" 3.300000000000000e+00
"net7" 5.690195426803878e-01
"net8" 1.650000000000000e+00
"inp" 1.650000000000000e+00
"out" 1.649912531110117e+00
"Xopamp.net1" 2.623752154257554e+00
"Xopamp.net3" 1.062596526000210e+00
"Xopamp.net2" 2.580057587199559e+00
"Xopamp.net8" 2.580058951857323e+00
"vcm:p" 1.423631432215931e-11
"vdd:p" -3.531584447318798e-05
"vip:p" 1.423631432215931e-11
"time" 7.000000000000001e-09
"Xopamp:1" 2.531541741055440e-05
"Xopamp:2" -3.531417620053454e-05
"Xopamp:3" -1.190240761711746e-11
"Xopamp:4" 1.169837354025635e-11
"Xopamp:5" 1.000000000000009e-05
"Xopamp:6" -1.241005985780521e-09
"Xopamp.M1:1" 5.037070231366609e-06
"Xopamp.M1:2" 1.169837354025635e-11
"Xopamp.M1:3" -5.037064284438818e-06
"Xopamp.M1:4" -1.764530133249090e-11
"Xopamp.M2:1" 5.040195104360335e-06
"Xopamp.M2:2" -1.190240761711746e-11
"Xopamp.M2:3" -5.040174099073632e-06
"Xopamp.M2:4" -9.102879087766101e-12
"Xopamp.M3:1" -5.036970698834618e-06
"Xopamp.M3:2" -4.367301575846887e-11
"Xopamp.M3:3" 5.037004752197238e-06
"Xopamp.M3:4" 9.619653145585116e-12
"Xopamp.M4:1" -5.040507001492959e-06
"Xopamp.M4:2" -5.585951623203680e-11
"Xopamp.M4:3" 5.040559157378707e-06
"Xopamp.M4:4" 3.703630495016516e-12
"Xopamp.M5:1" 1.007726513169285e-05
"Xopamp.M5:2" -2.938600020643957e-12
"Xopamp.M5:3" -1.007725871001594e-05
"Xopamp.M5:4" -3.483076883183730e-12
"Xopamp.M6:1" -1.523817222591854e-05
"Xopamp.M6:2" 3.320482237268036e-10
"Xopamp.M6:3" 1.523789169493286e-05
"Xopamp.M6:4" -5.151723805256262e-11
"Xopamp.M7:1" 1.523691106884167e-05
"Xopamp.M7:2" -7.442334004576212e-12
"Xopamp.M7:3" -1.523678151812287e-05
"Xopamp.M7:4" -1.221083847653099e-10
"Xopamp.M8:1" 1.000000954149831e-05
"Xopamp.M8:2" 8.394358002184640e-13
"Xopamp.M8:3" -1.000000962631497e-05
"Xopamp.M8:4" -7.546191076794280e-13
"dd" 3.300000000000000e+00
"net7" 5.690195670914016e-01
"net8" 1.650000000000000e+00
"inp" 1.650000000000000e+00
"out" 1.649915418714361e+00
"Xopamp.net1" 2.623751798315168e+00
"Xopamp.net3" 1.062597945739998e+00
"Xopamp.net2" 2.580059904078608e+00
"Xopamp.net8" 2.580061776114975e+00
"vcm:p" 1.190240761853530e-11
"vdd:p" -3.531541741055428e-05
"vip:p" 1.190240761853530e-11
"time" 1.000000000000000e-08
"Xopamp:1" 2.531497830201250e-05
"Xopamp:2" -3.531417015419984e-05
"Xopamp:3" -8.644929015950442e-12
"Xopamp:4" 7.733004505264925e-12
"Xopamp:5" 9.999999999999699e-06
"Xopamp:6" -8.072358882377164e-10
"Xopamp.M1:1" 5.037129933940809e-06
"Xopamp.M1:2" 7.733004505264925e-12
"Xopamp.M1:3" -5.037120587513033e-06
"Xopamp.M1:4" -1.707943228033388e-11
"Xopamp.M2:1" 5.040134464585664e-06
"Xopamp.M2:2" -8.644929015950442e-12
"Xopamp.M2:3" -5.040115678708769e-06
"Xopamp.M2:4" -1.014094787719256e-11
"Xopamp.M3:1" -5.037012133062016e-06
"Xopamp.M3:2" -5.137416439851406e-11
"Xopamp.M3:3" 5.037052360476966e-06
"Xopamp.M3:4" 1.114674943379023e-11
"Xopamp.M4:1" -5.040543942412767e-06
"Xopamp.M4:2" -6.642671444495265e-11
"Xopamp.M4:3" 5.040606546559726e-06
"Xopamp.M4:4" 3.822567461663064e-12
"Xopamp.M5:1" 1.007726348660197e-05
"Xopamp.M5:2" -2.966440726902961e-12
"Xopamp.M5:3" -1.007725806561954e-05
"Xopamp.M5:4" -2.454541713421610e-12
"Xopamp.M6:1" -1.523772385216445e-05
"Xopamp.M6:2" 4.194265055099634e-10
"Xopamp.M6:3" 1.523736648012067e-05
"Xopamp.M6:4" -6.205446175672601e-11
"Xopamp.M7:1" 1.523690666759808e-05
"Xopamp.M7:2" -6.387708813881481e-12
"Xopamp.M7:3" -1.523678061878232e-05
"Xopamp.M7:4" -1.196611069740140e-10
"Xopamp.M8:1" 1.000000980815627e-05
"Xopamp.M8:2" -4.540070288792895e-13
"Xopamp.M8:3" -1.000000888549422e-05
"Xopamp.M8:4" -4.686550707443844e-13
"dd" 3.300000000000000e+00
"net7" 5.690195688812761e-01
"net8" 1.650000000000000e+00
"inp" 1.650000000000000e+00
"out" 1.649916940322232e+00
"Xopamp.net1" 2.623751246449594e+00
"Xopamp.net3" 1.062598720006359e+00
"Xopamp.net2" 2.580062332445487e+00
"Xopamp.net8" 2.580063256677707e+00
"vcm:p" 8.644929016736199e-12
"vdd:p" -3.531497830201261e-05
"vip:p" 8.644929016736199e-12
"time" 1.000837500000000e-08
"Xopamp:1" 2.473745724372839e-05
"Xopamp:2" -3.680711641079398e-05
"Xopamp:3" 4.550579191552823e-06
"Xopamp:4" -2.517394668341347e-06
"Xopamp:5" 1.000000000001136e-05
"Xopamp:6" 3.647464387088162e-08
"Xopamp.M1:1" 4.888328482172463e-06
"Xopamp.M1:2" -2.517394668341347e-06
"Xopamp.M1:3" -2.933608486295991e-06
"Xopamp.M1:4" 5.626746724650640e-07
"Xopamp.M2:1" 4.629025417756512e-06
"Xopamp.M2:2" 4.550579191552823e-06
"Xopamp.M2:3" -8.509843309913913e-06
"Xopamp.M2:4" -6.697612993955161e-07
"Xopamp.M3:1" -5.034865204609624e-06
"Xopamp.M3:2" 7.722436818468148e-08
"Xopamp.M3:3" 4.972953043654278e-06
"Xopamp.M3:4" -1.531220722914608e-08
"Xopamp.M4:1" -5.026628117506517e-06
"Xopamp.M4:2" 6.931235423921430e-08
"Xopamp.M4:3" 4.976487821459373e-06
"Xopamp.M4:4" -1.917205819206937e-08
"Xopamp.M5:1" 1.155053842314141e-05
"Xopamp.M5:2" -6.590521202327003e-07
"Xopamp.M5:3" -1.029038353266406e-05
"Xopamp.M5:4" -6.011027702401210e-07
"Xopamp.M6:1" -1.522014617284011e-05
"Xopamp.M6:2" 3.976455288124392e-07
"Xopamp.M6:3" 1.489541043984045e-05
"Xopamp.M6:4" -7.290979580449837e-08
"Xopamp.M7:1" 1.525657798764075e-05
"Xopamp.M7:2" 3.888277099794372e-07
"Xopamp.M7:3" -1.555598576631436e-05
"Xopamp.M7:4" -8.941993130506652e-08
"Xopamp.M8:1" 1.000756735710944e-05
"Xopamp.M8:2" 2.626570531551828e-07
"Xopamp.M8:3" -1.021215365225710e-05
"Xopamp.M8:4" -5.807075801327255e-08
"dd" 3.300000000000000e+00
"net7" 5.690263791000101e-01
"net8" 1.650000000000000e+00
"inp" 1.651675000000000e+00
"out" 1.649927329174835e+00
"Xopamp.net1" 2.623753749917258e+00
"Xopamp.net3" 1.063237443940023e+00
"Xopamp.net2" 2.580069666383887e+00
"Xopamp.net8" 2.580073645204224e+00
"vcm:p" -4.550579191552413e-06
"vdd:p" -3.473745724371406e-05
"vip:p" -4.550579191552413e-06
"time" 1.011197166398171e-08
"Xopamp:1" 2.513889564866498e-05
"Xopamp:2" -3.696683094766476e-05
"Xopamp:3" 4.437195131558075e-06
"Xopamp:4" -2.695265627585399e-06
"Xopamp:5" 9.999999999990502e-06
"Xopamp:6" 8.600579502093284e-08
"Xopamp.M1:1" 4.270339826275234e-06
"Xopamp.M1:2" -2.695265627585399e-06
"Xopamp.M1:3" -2.190767773066334e-06
"Xopamp.M1:4" 6.156935743763719e-07
"Xopamp.M2:1" 5.675137482212538e-06
"Xopamp.M2:2" 4.437195131558075e-06
"Xopamp.M2:3" -9.505920235323294e-06
"Xopamp.M2:4" -6.064123784474064e-07
"Xopamp.M3:1" -5.021240746479259e-06
"Xopamp.M3:2" 3.575688451182644e-07
"Xopamp.M3:3" 4.734574874027284e-06
"Xopamp.M3:4" -7.090297266655373e-08
"Xopamp.M4:1" -5.078269420809131e-06
"Xopamp.M4:2" 3.933320750966907e-07
"Xopamp.M4:3" 4.738196160761743e-06
"Xopamp.M4:4" -5.325881504951625e-08
"Xopamp.M5:1" 1.168740681245907e-05
"Xopamp.M5:2" -7.165666396746755e-07
"Xopamp.M5:3" -1.031983428169357e-05
"Xopamp.M5:4" -6.510058910949751e-07
"Xopamp.M6:1" -1.519507426620408e-05
"Xopamp.M6:2" -5.952121353961089e-07
"Xopamp.M6:3" 1.571671136279576e-05
"Xopamp.M6:4" 7.357503879626024e-08
"Xopamp.M7:1" 1.527942413521910e-05
"Xopamp.M7:2" 4.143482989771549e-07
"Xopamp.M7:3" -1.559870344848848e-05
"Xopamp.M7:4" -9.506898570694738e-08
"Xopamp.M8:1" 1.002248037261106e-05
"Xopamp.M8:2" 2.797379680769663e-07
"Xopamp.M8:3" -1.024037120596046e-05
"Xopamp.M8:4" -6.184713472032767e-08
"dd" 3.300000000000000e+00
"net7" 5.691133589485486e-01
"net8" 1.650000000000000e+00
"inp" 1.672394332796341e+00
"out" 1.650059160587899e+00
"Xopamp.net1" 2.623840926800510e+00
"Xopamp.net3" 1.071482362518614e+00
"Xopamp.net2" 2.580051561098092e+00
"Xopamp.net8" 2.580205396623943e+00
"vcm:p" -4.437195131558520e-06
"vdd:p" -3.513889564867697e-05
"vip:p" -4.437195131558520e-06
"time" 1.031916499194512e-08
"Xopamp:1" 2.624191593377644e-05
"Xopamp:2" -3.731487445558660e-05
"Xopamp:3" 4.062385723663534e-06
"Xopamp:4" -3.061926085412721e-06
"Xopamp:5" 1.000016869029719e-05
"Xopamp:6" 7.514592189920277e-08
"Xopamp.M1:1" 3.064638128371279e-06
"Xopamp.M1:2" -3.061926085412721e-06
"Xopamp.M1:3" -7.360556044823865e-07
"Xopamp.M1:4" 7.333435615239553e-07
"Xopamp.M2:1" 7.925535345501241e-06
"Xopamp.M2:2" 4.062385723663534e-06
"Xopamp.M2:3" -1.150385892849778e-05
"Xopamp.M2:4" -4.840621406668789e-07
"Xopamp.M3:1" -4.970325866975977e-06
"Xopamp.M3:2" 8.904943500301703e-07
"Xopamp.M3:3" 4.256410682053006e-06
"Xopamp.M3:4" -1.765791651068430e-07
"Xopamp.M4:1" -5.162947863965469e-06
"Xopamp.M4:2" 1.016959278674607e-06
"Xopamp.M4:3" 4.260279287583757e-06
"Xopamp.M4:4" -1.142907022924231e-07
"Xopamp.M5:1" 1.198385451431487e-05
"Xopamp.M5:2" -8.406868395445831e-07
"Xopamp.M5:3" -1.038423230046498e-05
"Xopamp.M5:4" -7.589353743016734e-07
"Xopamp.M6:1" -1.526827844484365e-05
"Xopamp.M6:2" -2.747817386686818e-06
"Xopamp.M6:3" 1.762549577931736e-05
"Xopamp.M6:4" 3.906000522215759e-07
"Xopamp.M7:1" 1.533085125096871e-05
"Xopamp.M7:2" 4.688757719248496e-07
"Xopamp.M7:3" -1.569194156237360e-05
"Xopamp.M7:4" -1.077854605215232e-07
"Xopamp.M8:1" 1.005526461813977e-05
"Xopamp.M8:2" 3.167151397771460e-07
"Xopamp.M8:3" -1.030195743287266e-05
"Xopamp.M8:4" -7.002232505216095e-08
"dd" 3.300000000000000e+00
"net7" 5.693046564308292e-01
"net8" 1.650000000000000e+00
"inp" 1.713832998389024e+00
"out" 1.650349108063021e+00
"Xopamp.net1" 2.624341404987035e+00
"Xopamp.net3" 1.090150866370621e+00
"Xopamp.net2" 2.579325961569698e+00
"Xopamp.net8" 2.580494004025192e+00
"vcm:p" -4.061358569659359e-06
"vdd:p" -3.624191593376270e-05
"vip:p" -4.061358569659359e-06
"time" 1.065958249597256e-08
"Xopamp:1" 2.872047559916848e-05
"Xopamp:2" -3.797785371986229e-05
"Xopamp:3" 3.210609122428583e-06
"Xopamp:4" -3.606184015879762e-06
"Xopamp:5" 1.000087303399513e-05
"Xopamp:6" -2.955363519961158e-07
"Xopamp.M1:1" 1.371767298189866e-06
"Xopamp.M1:2" -3.606184015879762e-06
"Xopamp.M1:3" 1.246313312475025e-06
"Xopamp.M1:4" 9.881034052147407e-07
"Xopamp.M2:1" 1.162245265458377e-05
"Xopamp.M2:2" 3.210609122428583e-06
"Xopamp.M2:3" -1.457327563797054e-05
"Xopamp.M2:4" -2.597861390419134e-07
"Xopamp.M3:1" -4.829575416863568e-06
"Xopamp.M3:2" 1.601889407230925e-06
"Xopamp.M3:3" 3.545330898092816e-06
"Xopamp.M3:4" -3.176448884605006e-07
"Xopamp.M4:1" -5.233703640735159e-06
"Xopamp.M4:2" 1.860020179884057e-06
"Xopamp.M4:3" 3.560840153921890e-06
"Xopamp.M4:4" -1.871566930712659e-07
"Xopamp.M5:1" 1.254438224445024e-05
"Xopamp.M5:2" -1.072348477390498e-06
"Xopamp.M5:3" -1.050713413367144e-05
"Xopamp.M5:4" -9.648996333919974e-07
"Xopamp.M6:1" -1.578188557820304e-05
"Xopamp.M6:2" -6.337220550491084e-06
"Xopamp.M6:3" 2.120775505049921e-05
"Xopamp.M6:4" 9.113510781863385e-07
"Xopamp.M7:1" 1.543259844142283e-05
"Xopamp.M7:2" 5.689936841394561e-07
"Xopamp.M7:3" -1.586912388714049e-05
"Xopamp.M7:4" -1.324682384204619e-07
"Xopamp.M8:1" 1.011862464283575e-05
"Xopamp.M8:2" 3.856031844104219e-07
"Xopamp.M8:3" -1.041897521685494e-05
"Xopamp.M8:4" -8.525261038296875e-08
"dd" 3.300000000000000e+00
"net7" 5.696747427790034e-01
"net8" 1.650000000000000e+00
"inp" 1.781916499194512e+00
"out" 1.650935406716242e+00
"Xopamp.net1" 2.625983505007225e+00
"Xopamp.net3" 1.128027817792939e+00
"Xopamp.net2" 2.576076592128202e+00
"Xopamp.net8" 2.581070040034466e+00
"vcm:p" -3.206495168142911e-06
"vdd:p" -3.867237542227595e-05
"vip:p" -3.206495168142911e-06
"time" 1.100000000000000e-08
"Xopamp:1" 3.150073765028429e-05
"Xopamp:2" -3.869357326844598e-05
"Xopamp:3" 2.116290769723438e-06
"Xopamp:4" -3.836137033223641e-06
"Xopamp:5" 1.000092984861645e-05
"Xopamp:6" -1.105725284237899e-06
"Xopamp.M1:1" 3.283939933625835e-07
"Xopamp.M1:2" -3.836137033223641e-06
"Xopamp.M1:3" 2.167267499504242e-06
"Xopamp.M1:4" 1.340475540356961e-06
"Xopamp.M2:1" 1.458026515342770e-05
"Xopamp.M2:2" 2.116290769723438e-06
"Xopamp.M2:3" -1.666615477058138e-05
"Xopamp.M2:4" -3.040115256964556e-08
"Xopamp.M3:1" -4.649757482485525e-06
"Xopamp.M3:2" 1.975090426454344e-06
"Xopamp.M3:3" 3.077649845438793e-06
"Xopamp.M3:4" -4.029827894074051e-07
"Xopamp.M4:1" -5.202983485646151e-06
"Xopamp.M4:2" 2.357367851262553e-06
"Xopamp.M4:3" 3.064483972844744e-06
"Xopamp.M4:4" -2.188683384606275e-07
"Xopamp.M5:1" 1.313675225638903e-05
"Xopamp.M5:2" -1.313917753521954e-06
"Xopamp.M5:3" -1.064083759694555e-05
"Xopamp.M5:4" -1.181996905917484e-06
"Xopamp.M6:1" -1.678281339401025e-05
"Xopamp.M6:2" -9.197641565850025e-06
"Xopamp.M6:3" 2.466524520718447e-05
"Xopamp.M6:4" 1.315209752684317e-06
"Xopamp.M7:1" 1.555589116343482e-05
"Xopamp.M7:2" 6.665170280288578e-07
"Xopamp.M7:3" -1.606606850686226e-05
"Xopamp.M7:4" -1.563396846026450e-07
"Xopamp.M8:1" 1.019474357049893e-05
"Xopamp.M8:2" 4.535870036106168e-07
"Xopamp.M8:3" -1.054896517393186e-05
"Xopamp.M8:4" -9.936540018618778e-08
"dd" 3.300000000000000e+00
"net7" 5.701156252514096e-01
"net8" 1.650000000000000e+00
"inp" 1.850000000000000e+00
"out" 1.651690125969053e+00
"Xopamp.net1" 2.628362328417380e+00
"Xopamp.net3" 1.175848401951197e+00
"Xopamp.net2" 2.570538492394906e+00
"Xopamp.net8" 2.581797688710020e+00
"vcm:p" -2.112330838694972e-06
"vdd:p" -4.154883782717741e-05
"vip:p" -2.112330838694972e-06
"time" 1.100837500000000e-08
"Xopamp:1" 3.218702445914011e-05
"Xopamp:2" -3.702304386941097e-05
"Xopamp:3" -2.402775827450282e-06
"Xopamp:4" -1.601042168956868e-06
"Xopamp:5" 9.999999999983994e-06
"Xopamp:6" -1.160162593265730e-06
"Xopamp.M1:1" 4.405963988760958e-07
"Xopamp.M1:2" -1.601042168956868e-06
"Xopamp.M1:3" 6.010226297658921e-07
"Xopamp.M1:4" 5.594231403151158e-07
"Xopamp.M2:1" 1.504276536538879e-05
"Xopamp.M2:2" -2.402775827450282e-06
"Xopamp.M2:3" -1.313913304408311e-05
"Xopamp.M2:4" 4.991435061453529e-07
"Xopamp.M3:1" -4.647315687688045e-06
"Xopamp.M3:2" 1.914556772006939e-06
"Xopamp.M3:3" 3.117827717714402e-06
"Xopamp.M3:4" -3.850688020283035e-07
"Xopamp.M4:1" -5.217341466225712e-06
"Xopamp.M4:2" 2.292162516798030e-06
"Xopamp.M4:3" 3.122916849794887e-06
"Xopamp.M4:4" -1.977379003670182e-07
"Xopamp.M5:1" 1.147954376785808e-05
"Xopamp.M5:2" -5.809629240324148e-07
"Xopamp.M5:3" -1.040734149956038e-05
"Xopamp.M5:4" -4.912393442615114e-07
"Xopamp.M6:1" -1.682680734163898e-05
"Xopamp.M6:2" -9.702279252387915e-06
"Xopamp.M6:3" 2.512530621795291e-05
"Xopamp.M6:4" 1.403780376073230e-06
"Xopamp.M7:1" 1.554350010157474e-05
"Xopamp.M7:2" 2.307689428391910e-07
"Xopamp.M7:3" -1.571338867032973e-05
"Xopamp.M7:4" -6.088037408721647e-08
"Xopamp.M8:1" 1.018837683892816e-05
"Xopamp.M8:2" 1.618171422490574e-07
"Xopamp.M8:3" -1.031455128968530e-05
"Xopamp.M8:4" -3.564269148682678e-08
"dd" 3.300000000000000e+00
"net7" 5.701198113532536e-01
"net8" 1.650000000000000e+00
"inp" 1.850000000000000e+00
"out" 1.651701688513995e+00
"Xopamp.net1" 2.628424915298489e+00
"Xopamp.net3" 1.176396706239456e+00
"Xopamp.net2" 2.570368175989274e+00
"Xopamp.net8" 2.581808313676401e+00
"vcm:p" 2.402775827449753e-06
"vdd:p" -4.218702445911347e-05
"vip:p" 2.402775827449753e-06
"time" 1.106017333199085e-08
"Xopamp:1" 3.187015825051566e-05
"Xopamp:2" -3.691896120123398e-05
"Xopamp:3" -2.161728717681370e-06
"Xopamp:4" -1.422964849173255e-06
"Xopamp:5" 1.000000000001048e-05
"Xopamp:6" -1.366503482480804e-06
"Xopamp.M1:1" 4.111966221552913e-07
"Xopamp.M1:2" -1.422964849173255e-06
"Xopamp.M1:3" 5.025136785603370e-07
"Xopamp.M1:4" 5.092545484571323e-07
"Xopamp.M2:1" 1.454146684792076e-05
"Xopamp.M2:2" -2.161728717681370e-06
"Xopamp.M2:3" -1.283319037414174e-05
"Xopamp.M2:4" 4.534522439016253e-07
"Xopamp.M3:1" -4.618972070987877e-06
"Xopamp.M3:2" 1.933097330834352e-06
"Xopamp.M3:3" 3.074672556527646e-06
"Xopamp.M3:4" -3.887978163788706e-07
"Xopamp.M4:1" -5.160858692742440e-06
"Xopamp.M4:2" 2.274678118007566e-06
"Xopamp.M4:3" 3.097910351575326e-06
"Xopamp.M4:4" -2.117297768410670e-07
"Xopamp.M5:1" 1.136796990322152e-05
"Xopamp.M5:2" -5.302155347060019e-07
"Xopamp.M5:3" -1.039470174920659e-05
"Xopamp.M5:4" -4.430526193131849e-07
"Xopamp.M6:1" -1.705234688474348e-05
"Xopamp.M6:2" -9.245756050887412e-06
"Xopamp.M6:3" 2.498940170907507e-05
"Xopamp.M6:4" 1.308701226557552e-06
"Xopamp.M7:1" 1.555099129799356e-05
"Xopamp.M7:2" 1.977006294476352e-07
"Xopamp.M7:3" -1.569390754663271e-05
"Xopamp.M7:4" -5.478438080669180e-08
"Xopamp.M8:1" 1.019193779783789e-05
"Xopamp.M8:2" 1.405771074309498e-07
"Xopamp.M8:3" -1.030155058026839e-05
"Xopamp.M8:4" -3.096432500642049e-08
"dd" 3.300000000000000e+00
"net7" 5.701440026837571e-01
"net8" 1.650000000000000e+00
"inp" 1.850000000000000e+00
"out" 1.651773567415917e+00
"Xopamp.net1" 2.628813881662552e+00
"Xopamp.net3" 1.179627106584080e+00
"Xopamp.net2" 2.569346357636183e+00
"Xopamp.net8" 2.581874118123158e+00
"vcm:p" 2.161728717681695e-06
"vdd:p" -4.187015825054101e-05
"vip:p" 2.161728717681695e-06
"time" 1.116376999597255e-08
"Xopamp:1" 3.136929181643106e-05
"Xopamp:2" -3.673679796457591e-05
"Xopamp:3" -1.754115645611147e-06
"Xopamp:4" -1.139508639964498e-06
"Xopamp:5" 9.999999999993092e-06
"Xopamp:6" -1.738869566229610e-06
"Xopamp.M1:1" 3.664854864262221e-07
"Xopamp.M1:2" -1.139508639964498e-06
"Xopamp.M1:3" 3.588731422339189e-07
"Xopamp.M1:4" 4.141500113049581e-07
"Xopamp.M2:1" 1.370021020632528e-05
"Xopamp.M2:2" -1.754115645611147e-06
"Xopamp.M2:3" -1.231889760499618e-05
"Xopamp.M2:4" 3.728030442826552e-07
"Xopamp.M3:1" -4.563381905210601e-06
"Xopamp.M3:2" 1.922715340308556e-06
"Xopamp.M3:3" 3.027376280220189e-06
"Xopamp.M3:4" -3.867097153139432e-07
"Xopamp.M4:1" -5.087089418807337e-06
"Xopamp.M4:2" 2.274181078469227e-06
"Xopamp.M4:3" 3.027942342798971e-06
"Xopamp.M4:4" -2.150340024602904e-07
"Xopamp.M5:1" 1.117307140717563e-05
"Xopamp.M5:2" -4.419516014640107e-07
"Xopamp.M5:3" -1.037243305417235e-05
"Xopamp.M5:4" -3.586867515353724e-07
"Xopamp.M6:1" -1.745948392618598e-05
"Xopamp.M6:2" -8.456232985002486e-06
"Xopamp.M6:3" 2.468220627218755e-05
"Xopamp.M6:4" 1.233510638998580e-06
"Xopamp.M7:1" 1.556372655741648e-05
"Xopamp.M7:2" 1.403726191420991e-07
"Xopamp.M7:3" -1.565963714875542e-05
"Xopamp.M7:4" -4.446202780386139e-08
"Xopamp.M8:1" 1.019764072985530e-05
"Xopamp.M8:2" 1.039382524597036e-07
"Xopamp.M8:3" -1.027868479431833e-05
"Xopamp.M8:4" -2.289418799058154e-08
"dd" 3.300000000000000e+00
"net7" 5.701831248025839e-01
"net8" 1.650000000000000e+00
"inp" 1.850000000000000e+00
"out" 1.651920359914238e+00
"Xopamp.net1" 2.629593463919749e+00
"Xopamp.net3" 1.185198157455513e+00
"Xopamp.net2" 2.567432295911199e+00
"Xopamp.net8" 2.582007172766435e+00
"vcm:p" 1.754115645610675e-06
"vdd:p" -4.136929181640989e-05
"vip:p" 1.754115645610675e-06
"time" 1.137096332393596e-08
"Xopamp:1" 3.081005802076493e-05
"Xopamp:2" -3.647916639362062e-05
"Xopamp:3" -1.169493857527020e-06
"Xopamp:4" -7.317751201321633e-07
"Xopamp:5" 1.000021327192044e-05
"Xopamp:6" -2.425293454117150e-06
"Xopamp.M1:1" 3.119857739272761e-07
"Xopamp.M1:2" -7.317751201321633e-07
"Xopamp.M1:3" 1.392052633981871e-07
"Xopamp.M1:4" 2.805840828060951e-07
"Xopamp.M2:1" 1.249510219055114e-05
"Xopamp.M2:2" -1.169493857527020e-06
"Xopamp.M2:3" -1.158397218773664e-05
"Xopamp.M2:4" 2.583638547119197e-07
"Xopamp.M3:1" -4.455124695005082e-06
"Xopamp.M3:2" 1.920090640468112e-06
"Xopamp.M3:3" 2.933055432200796e-06
"Xopamp.M3:4" -3.980213776681108e-07
"Xopamp.M4:1" -4.912979579647527e-06
"Xopamp.M4:2" 2.223767798494610e-06
"Xopamp.M4:3" 2.934237431300077e-06
"Xopamp.M4:4" -2.450256501477142e-07
"Xopamp.M5:1" 1.089670138837280e-05
"Xopamp.M5:2" -3.164625845818193e-07
"Xopamp.M5:3" -1.034060512367035e-05
"Xopamp.M5:4" -2.396336801245796e-07
"Xopamp.M6:1" -1.820413614502153e-05
"Xopamp.M6:2" -7.381676040056070e-06
"Xopamp.M6:3" 2.456536203278822e-05
"Xopamp.M6:4" 1.020450152291662e-06
"Xopamp.M7:1" 1.558225173331736e-05
"Xopamp.M7:2" 5.911237028077017e-08
"Xopamp.M7:3" -1.561057481256210e-05
"Xopamp.M7:4" -3.078929103538474e-08
"Xopamp.M8:1" 1.020484415265998e-05
"Xopamp.M8:2" 5.271933356151376e-08
"Xopamp.M8:3" -1.024595086512925e-05
"Xopamp.M8:4" -1.161262109894906e-08
"dd" 3.300000000000000e+00
"net7" 5.702332547960388e-01
"net8" 1.650000000000000e+00
"inp" 1.850000000000000e+00
"out" 1.652233142014781e+00
"Xopamp.net1" 2.631161298165590e+00
"Xopamp.net3" 1.193600916792043e+00
"Xopamp.net2" 2.564023364706413e+00
"Xopamp.net8" 2.582286664666671e+00
"vcm:p" 1.170757518900304e-06
"vdd:p" -4.081005802078850e-05
"vip:p" 1.170757518900304e-06
"time" 1.178534997986276e-08
"Xopamp:1" 3.062272597518766e-05
"Xopamp:2" -3.617924553629533e-05
"Xopamp:3" -5.167385054771054e-07
"Xopamp:4" -3.045688617392018e-07
"Xopamp:5" 1.000044979237829e-05
"Xopamp:6" -3.612627486236678e-06
"Xopamp.M1:1" 2.645238598454652e-07
"Xopamp.M1:2" -3.045688617392018e-07
"Xopamp.M1:3" -7.380095477676326e-08
"Xopamp.M1:4" 1.138459566711067e-07
"Xopamp.M2:1" 1.116606739285484e-05
"Xopamp.M2:2" -5.167385054771054e-07
"Xopamp.M2:3" -1.077519108393546e-05
"Xopamp.M2:4" 1.258621965583302e-07
"Xopamp.M3:1" -4.248343353902268e-06
"Xopamp.M3:2" 1.857458282362614e-06
"Xopamp.M3:3" 2.767761517972892e-06
"Xopamp.M3:4" -3.768764464290373e-07
"Xopamp.M4:1" -4.666645156068660e-06
"Xopamp.M4:2" 2.129245940081859e-06
"Xopamp.M4:3" 2.777668950323823e-06
"Xopamp.M4:4" -2.402697343364637e-07
"Xopamp.M5:1" 1.057677035293586e-05
"Xopamp.M5:2" -1.716399953182052e-07
"Xopamp.M5:3" -1.030174824696953e-05
"Xopamp.M5:4" -1.033821106443233e-07
"Xopamp.M6:1" -1.948089089254909e-05
"Xopamp.M6:2" -6.213550795109720e-06
"Xopamp.M6:3" 2.480258719644815e-05
"Xopamp.M6:4" 8.918544912082966e-07
"Xopamp.M7:1" 1.560202539099157e-05
"Xopamp.M7:2" -3.324326455107297e-08
"Xopamp.M7:3" -1.555080303756824e-05
"Xopamp.M7:4" -1.797908887268014e-08
"Xopamp.M8:1" 1.020879009339682e-05
"Xopamp.M8:2" -3.457041149252995e-09
"Xopamp.M8:3" -1.020609393578137e-05
"Xopamp.M8:4" 7.608835408176375e-10
"dd" 3.300000000000000e+00
"net7" 5.702647823901874e-01
"net8" 1.650000000000000e+00
"inp" 1.850000000000000e+00
"out" 1.652966966931391e+00
"Xopamp.net1" 2.634251784707257e+00
"Xopamp.net3" 1.203489298414075e+00
"Xopamp.net2" 2.558199800619372e+00
"Xopamp.net8" 2.582933312242214e+00
"vcm:p" 5.199671763800934e-07
"vdd:p" -4.062272597516459e-05
"vip:p" 5.199671763800934e-07
"time" 1.261412329171638e-08
"Xopamp:1" 3.179854802454178e-05
"Xopamp:2" -3.595992106852385e-05
"Xopamp:3" -6.963050354442677e-08
"Xopamp:4" 7.879697262558562e-10
"Xopamp:5" 1.000060632087478e-05
"Xopamp:6" -5.756096654483716e-06
"Xopamp.M1:1" 2.440381144254381e-07
"Xopamp.M1:2" 7.879697262558562e-10
"Xopamp.M1:3" -2.387230426990405e-07
"Xopamp.M1:4" -6.103041453267895e-09
"Xopamp.M2:1" 1.024688735174636e-05
"Xopamp.M2:2" -6.963050354442677e-08
"Xopamp.M2:3" -1.021204525002548e-05
"Xopamp.M2:4" 3.478840182292671e-08
"Xopamp.M3:1" -3.872447629880283e-06
"Xopamp.M3:2" 1.700235081523437e-06
"Xopamp.M3:3" 2.538751381840376e-06
"Xopamp.M3:4" -3.665388334877791e-07
"Xopamp.M4:1" -4.230824951715697e-06