HEADER
"PSFversion" "1.00"
"simulator" "spectre"
"version" "23.1.0.063"
"date" "10:03:27 AM, Thur Dec 19, 2024"
"design" ""
"analysis type" "ac"
"analysis name" "outac1"
"analysis description" "AC Analysis `outac1': freq = (100 mHz -> 1 GHz)"
"xVecSorted" "ascending"
"tolerance.relative" 0.00100000
"start" 0.100000
"stop" 1.00000e+09
"operating point producer" "outac1"
TYPE
"sweep" FLOAT DOUBLE PROP(
"key" "sweep"
)
"V" COMPLEX DOUBLE PROP(
"units" "V"
"key" "node"
"tolerance" 1.00000e-06
)
"I" COMPLEX DOUBLE PROP(
"units" "A"
"key" "branch"
"tolerance" 1.00000e-12
)
"MMF" COMPLEX DOUBLE PROP(
"units" "A*turn"
"key" "node"
"tolerance" 1.00000e-12
)
"Wb" COMPLEX DOUBLE PROP(
"units" "Wb"
"key" "node"
"tolerance" 1.00000e-09
)
"Temp" COMPLEX DOUBLE PROP(
"units" "C"
"key" "node"
"tolerance" 0.000100000
)
"Pwr" COMPLEX DOUBLE PROP(
"units" "W"
"key" "node"
"tolerance" 1.00000e-09
)
"U" COMPLEX DOUBLE PROP(
"units" ""
"key" "node"
"tolerance" 1.00000e-06
)
"V/Sec" COMPLEX DOUBLE PROP(
"units" "V/s"
"key" "node"
"tolerance" 0.000100000
)
"I/Sec" COMPLEX DOUBLE PROP(
"units" "A/s"
"key" "node"
"tolerance" 1.00000e-06
)
"1/Sec" COMPLEX DOUBLE PROP(
"units" "1/s"
"key" "node"
"tolerance" 0.000100000
)
"HOD" COMPLEX DOUBLE PROP(
"units" ""
"key" "node"
"tolerance" 0.0100000
)
"Q" COMPLEX DOUBLE PROP(
"units" "Coul"
"key" "node"
"tolerance" 1.00000e-15
)
SWEEP
"freq" "sweep" PROP(
"sweep_direction" 0
"units" "Hz"
"plot" 0
"grid" 3
)
TRACE
"Xopamp:1" "I"
"Xopamp:2" "I"
"Xopamp:3" "I"
"Xopamp:4" "I"
"Xopamp:5" "I"
"Xopamp:6" "I"
"Xopamp.M1:1" "I"
"Xopamp.M1:2" "I"
"Xopamp.M1:3" "I"
"Xopamp.M1:4" "I"
"Xopamp.M2:1" "I"
"Xopamp.M2:2" "I"
"Xopamp.M2:3" "I"
"Xopamp.M2:4" "I"
"Xopamp.M3:1" "I"
"Xopamp.M3:2" "I"
"Xopamp.M3:3" "I"
"Xopamp.M3:4" "I"
"Xopamp.M4:1" "I"
"Xopamp.M4:2" "I"
"Xopamp.M4:3" "I"
"Xopamp.M4:4" "I"
"Xopamp.M5:1" "I"
"Xopamp.M5:2" "I"
"Xopamp.M5:3" "I"
"Xopamp.M5:4" "I"
"Xopamp.M6:1" "I"
"Xopamp.M6:2" "I"
"Xopamp.M6:3" "I"
"Xopamp.M6:4" "I"
"Xopamp.M7:1" "I"
"Xopamp.M7:2" "I"
"Xopamp.M7:3" "I"
"Xopamp.M7:4" "I"
"Xopamp.M8:1" "I"
"Xopamp.M8:2" "I"
"Xopamp.M8:3" "I"
"Xopamp.M8:4" "I"
"dd" "V"
"net7" "V"
"inn" "V"
"inp" "V"
"out" "V"
"Xopamp.net1" "V"
"Xopamp.net3" "V"
"Xopamp.net2" "V"
"Xopamp.net8" "V"
"vdd:p" "I"
"vin:p" "I"
"vip:p" "I"
VALUE
"freq" 1.000000000000000e-01
"Xopamp:1" (6.111506229167820e-02 -5.364894425476862e-07)
"Xopamp:2" (-6.111506229169864e-02 5.368794472709161e-07)
"Xopamp:3" (5.247012837360011e-18 6.100756921941073e-13)
"Xopamp:4" (4.250656284811385e-20 -6.277716811534011e-15)
"Xopamp:5" (-7.663035711179978e-29 -5.650356993199120e-24)
"Xopamp:6" (1.906429414928679e-14 -3.906085209780387e-10)
"Xopamp.M1:1" (-2.004653496156215e-05 -1.509982848945606e-10)
"Xopamp.M1:2" (4.250656284811385e-20 -6.277716811534011e-15)
"Xopamp.M1:3" (2.004657890846036e-05 1.510036890627023e-10)
"Xopamp.M1:4" (-4.394689834199429e-11 8.735486315536586e-16)
"Xopamp.M2:1" (2.001592319444967e-05 1.923134155179182e-10)
"Xopamp.M2:2" (5.247012837360011e-18 6.100756921941073e-13)
"Xopamp.M2:3" (-2.009579819564622e-05 -1.926086898814567e-10)
"Xopamp.M2:4" (7.987500255315308e-08 -3.148013330975935e-13)
"Xopamp.M3:1" (2.004653496152226e-05 1.465993490633984e-10)
"Xopamp.M3:2" (-3.183731393821325e-19 4.353584083057586e-14)
"Xopamp.M3:3" (-2.004653451012686e-05 -1.466342397878542e-10)
"Xopamp.M3:4" (-4.513926733114924e-13 -8.645116336432225e-15)
"Xopamp.M4:1" (-2.001592319800238e-05 4.911976757412603e-10)
"Xopamp.M4:2" (3.745797184356331e-17 4.355399990326580e-12)
"Xopamp.M4:3" (2.001510979923114e-05 -4.976047739605363e-10)
"Xopamp.M4:4" (8.133889856826119e-10 2.051698176735192e-12)
"Xopamp.M5:1" (-3.061176850893688e-08 4.191892860361137e-11)
"Xopamp.M5:2" (-3.774691233593456e-20 1.894686392600291e-15)
"Xopamp.M5:3" (3.061147178277218e-08 -4.192193902891258e-11)
"Xopamp.M5:4" (2.967266200417462e-13 1.115738966419578e-15)
"Xopamp.M6:1" (-6.111509290344941e-02 5.359817856720418e-07)
"Xopamp.M6:2" (-1.179932808729338e-15 -1.345390850779246e-10)
"Xopamp.M6:3" (6.105672684070778e-02 -5.353564748018917e-07)
"Xopamp.M6:4" (5.836606274372496e-05 -4.907717851065990e-10)
"Xopamp.M7:1" (6.111509290346362e-02 -5.369213661992472e-07)
"Xopamp.M7:2" (-3.642071641183325e-16 -4.143603813764164e-11)
"Xopamp.M7:3" (-6.111509259257369e-02 5.369839481786959e-07)
"Xopamp.M7:4" (-3.108931038536664e-10 -2.114594103875611e-11)
"Xopamp.M8:1" (3.642953692220688e-16 4.143414345124295e-11)
"Xopamp.M8:2" (-5.045819147701226e-20 4.436376758438887e-25)
"Xopamp.M8:3" (-3.642560774307778e-16 -4.143414320250154e-11)
"Xopamp.M8:4" (1.116640007322658e-20 -2.487516112704931e-19)
"dd" (0.000000000000000e+00 0.000000000000000e+00)
"net7" (2.187086435484177e-12 2.487535162328089e-07)
"inn" (-5.000000000000000e-01 0.000000000000000e+00)
"inp" (5.000000000000000e-01 0.000000000000000e+00)
"out" (3.108363846510394e+02 -2.731424475070791e-03)
"Xopamp.net1" (2.683302194975709e-01 1.962271588868083e-06)
"Xopamp.net3" (-2.468737942064363e-01 1.902750310511399e-06)
"Xopamp.net2" (-4.834509645327479e+02 4.239838543111813e-03)
"Xopamp.net8" (-4.834509645322970e+02 4.290838042490340e-03)
"vdd:p" (-6.111506229167821e-02 5.364894425476862e-07)
"vin:p" (-4.250656284811386e-20 6.277716811534011e-15)
"vip:p" (-5.247012837360011e-18 -6.100756921941073e-13)
"freq" 1.258925411794167e-01
"Xopamp:1" (6.111506228892694e-02 -6.754001923521984e-07)
"Xopamp:2" (-6.111506228894535e-02 6.758911792089696e-07)
"Xopamp:3" (8.315954926314013e-18 7.680397919872027e-13)
"Xopamp:4" (6.736836208986901e-20 -7.903177222361831e-15)
"Xopamp:5" (8.822581556503417e-29 1.328642037583173e-23)
"Xopamp:6" (-3.494038102684864e-14 -4.917469930247232e-10)
"Xopamp.M1:1" (-2.004653496233758e-05 -1.900955779825708e-10)
"Xopamp.M1:2" (6.736836208986901e-20 -7.903177222361831e-15)
"Xopamp.M1:3" (2.004657890923578e-05 1.901023814271449e-10)
"Xopamp.M1:4" (-4.394689834476899e-11 1.099732570731495e-15)
"Xopamp.M2:1" (2.001592319444967e-05 2.421082458321268e-10)
"Xopamp.M2:2" (8.315954926314013e-18 7.680397919872027e-13)
"Xopamp.M2:3" (-2.009579819663675e-05 -2.424799742132505e-10)
"Xopamp.M2:4" (7.987500255154987e-08 -3.963113978855421e-13)
"Xopamp.M3:1" (2.004653496227859e-05 1.845576458800451e-10)
"Xopamp.M3:2" (-5.045874212465180e-19 5.480837634749400e-14)
"Xopamp.M3:3" (-2.004653451087869e-05 -1.846015706997491e-10)
"Xopamp.M3:4" (-4.513926363650903e-13 -1.088355664425934e-14)
"Xopamp.M4:1" (-2.001592316958067e-05 6.183812364078667e-10)
"Xopamp.M4:2" (5.936688457559401e-17 5.483123726108369e-12)
"Xopamp.M4:3" (2.001510979667944e-05 -6.264472949408432e-10)
"Xopamp.M4:4" (8.133889962772713e-10 2.582934971906749e-12)
"Xopamp.M5:1" (-3.061176830077006e-08 5.277280445186049e-11)
"Xopamp.M5:2" (-5.982482439494796e-20 2.385268847269842e-15)
"Xopamp.M5:3" (3.061147156721719e-08 -5.277659435280437e-11)
"Xopamp.M5:4" (2.967266308523133e-13 1.404632137635108e-15)
"Xopamp.M6:1" (-6.111509290072092e-02 6.747610902110238e-07)
"Xopamp.M6:2" (-1.870067476032559e-15 -1.693746730765189e-10)
"Xopamp.M6:3" (6.105672683796233e-02 -6.739738704663385e-07)
"Xopamp.M6:4" (5.836606274120816e-05 -6.178450716345011e-10)
"Xopamp.M7:1" (6.111509290067829e-02 -6.759439520130205e-07)
"Xopamp.M7:2" (-5.772294550307561e-16 -5.216488137319792e-11)
"Xopamp.M7:3" (-6.111509258981986e-02 6.760227380573235e-07)
"Xopamp.M7:4" (-3.108932125319908e-10 -2.662116252879159e-11)
"Xopamp.M8:1" (5.773692506994115e-16 5.216249610436305e-11)
"Xopamp.M8:2" (-7.997084417221022e-20 8.851735360718865e-25)
"Xopamp.M8:3" (-5.773069774066679e-16 -5.216249579119602e-11)
"Xopamp.M8:4" (1.769755145955610e-20 -3.131597969445741e-19)
"dd" (0.000000000000000e+00 0.000000000000000e+00)
"net7" (3.466298402767044e-12 3.131621228445156e-07)
"inn" (-5.000000000000000e-01 0.000000000000000e+00)
"inp" (5.000000000000000e-01 0.000000000000000e+00)
"out" (3.108363846370316e+02 -3.438659681908534e-03)
"Xopamp.net1" (2.683302195076365e-01 2.470353567956626e-06)
"Xopamp.net3" (-2.468737941966868e-01 2.395420718094413e-06)
"Xopamp.net2" (-4.834509645110048e+02 5.337640483587805e-03)
"Xopamp.net8" (-4.834509645102901e+02 5.401845049341301e-03)
"vdd:p" (-6.111506228892694e-02 6.754001923521984e-07)
"vin:p" (-6.736836208986901e-20 7.903177222361830e-15)
"vip:p" (-8.315954926314013e-18 -7.680397919872027e-13)
"freq" 1.584893192461114e-01
"Xopamp:1" (6.111506228456650e-02 -8.502784652222549e-07)
"Xopamp:2" (-6.111506228458171e-02 8.508965810530568e-07)
"Xopamp:3" (1.317990035058926e-17 9.669048113342063e-13)
"Xopamp:4" (1.067716584558851e-19 -9.949510639691268e-15)
"Xopamp:5" (-1.340045203417625e-28 -9.426634265002042e-24)
"Xopamp:6" (-1.623042077119003e-14 -6.190727853437230e-10)
"Xopamp.M1:1" (-2.004653496356229e-05 -2.393161537748755e-10)
"Xopamp.M1:2" (1.067716584558851e-19 -9.949510639691268e-15)
"Xopamp.M1:3" (2.004657891046223e-05 2.393247188041668e-10)
"Xopamp.M1:4" (-4.394689834916659e-11 1.384481279532606e-15)
"Xopamp.M2:1" (2.001592319444967e-05 3.047962230371716e-10)
"Xopamp.M2:2" (1.317990035058926e-17 9.669048113342063e-13)
"Xopamp.M2:3" (-2.009579819820320e-05 -3.052642013664990e-10)
"Xopamp.M2:4" (7.987500254900901e-08 -4.989264897464660e-13)
"Xopamp.M3:1" (2.004653496347208e-05 2.323443103227779e-10)
"Xopamp.M3:2" (-7.997171688781033e-19 6.899965776714079e-14)
"Xopamp.M3:3" (-2.004653451207026e-05 -2.323996083944716e-10)
"Xopamp.M3:4" (-4.513925778089892e-13 -1.370158603097325e-14)
"Xopamp.M4:1" (-2.001592318379153e-05 7.784958524180430e-10)
"Xopamp.M4:2" (9.409017121477818e-17 6.902843794326830e-12)
"Xopamp.M4:3" (2.001510979263527e-05 -7.886504186945411e-10)
"Xopamp.M4:4" (8.133890130686747e-10 3.251722472911925e-12)
"Xopamp.M5:1" (-3.061176795382536e-08 6.643702457128006e-11)
"Xopamp.M5:2" (-9.481595691694975e-20 3.002875566277258e-15)
"Xopamp.M5:3" (3.061147122558556e-08 -6.644179577395058e-11)
"Xopamp.M5:4" (2.967266479859077e-13 1.768327092053252e-15)
"Xopamp.M6:1" (-6.111509289635819e-02 8.494738832961340e-07)
"Xopamp.M6:2" (-2.963857211995715e-15 -2.132300800351596e-10)
"Xopamp.M6:3" (6.105672683361110e-02 -8.484828323548758e-07)
"Xopamp.M6:4" (5.836606273721931e-05 -7.778208611770286e-10)
"Xopamp.M7:1" (6.111509289632977e-02 -8.509630180768973e-07)
"Xopamp.M7:2" (-9.148470337010855e-16 -6.567169475925549e-11)
"Xopamp.M7:3" (-6.111509258545536e-02 8.510622038303840e-07)
"Xopamp.M7:4" (-3.108933847755279e-10 -3.351405799660489e-11)
"Xopamp.M8:1" (9.150685949043833e-16 6.566869188367802e-11)
"Xopamp.M8:2" (-1.267452465148472e-19 1.766153398606113e-24)
"Xopamp.M8:3" (-9.149698983869226e-16 -6.566869148945075e-11)
"Xopamp.M8:4" (2.804872882947631e-20 -3.942449705661444e-19)
"dd" (0.000000000000000e+00 0.000000000000000e+00)
"net7" (5.493712741192798e-12 3.942477544321940e-07)
"inn" (-5.000000000000000e-01 0.000000000000000e+00)
"inp" (5.000000000000000e-01 0.000000000000000e+00)
"out" (3.108363846148313e+02 -4.329016055758186e-03)
"Xopamp.net1" (2.683302195235894e-01 3.109990882595277e-06)
"Xopamp.net3" (-2.468737941812350e-01 3.015656013732544e-06)
"Xopamp.net2" (-4.834509644765445e+02 6.719691243331106e-03)
"Xopamp.net8" (-4.834509644754119e+02 6.800520002705584e-03)
"vdd:p" (-6.111506228456651e-02 8.502784652222550e-07)
"vin:p" (-1.067716584558851e-19 9.949510639691266e-15)
"vip:p" (-1.317990035058926e-17 -9.669048113342063e-13)
"freq" 1.995262314968880e-01
"Xopamp:1" (6.111506227765562e-02 -1.070437166848734e-06)
"Xopamp:2" (-6.111506227766576e-02 1.071215328575474e-06)
"Xopamp:3" (2.088873434060540e-17 1.217261037639818e-12)
"Xopamp:4" (1.692216746154158e-19 -1.252569178031543e-14)
"Xopamp:5" (-5.164787998575125e-29 3.027806225555694e-23)
"Xopamp:6" (-3.752152845967395e-14 -7.793664620504659e-10)
"Xopamp.M1:1" (-2.004653496550518e-05 -3.012811874060238e-10)
"Xopamp.M1:2" (1.692216746154158e-19 -1.252569178031543e-14)
"Xopamp.M1:3" (2.004657891240338e-05 3.012919701390952e-10)
"Xopamp.M1:4" (-4.394689835613633e-11 1.742958665078619e-15)
"Xopamp.M2:1" (2.001592319800238e-05 3.837157105729058e-10)
"Xopamp.M2:2" (2.088873434060540e-17 1.217261037639818e-12)
"Xopamp.M2:3" (-2.009579820068559e-05 -3.843048603678693e-10)
"Xopamp.M2:4" (7.987500254498196e-08 -6.281112364886309e-13)
"Xopamp.M3:1" (2.004653496535946e-05 2.925041565180720e-10)
"Xopamp.M3:2" (-1.267466296705976e-18 8.686542257633933e-14)
"Xopamp.M3:3" (-2.004653451395879e-05 -2.925737726657716e-10)
"Xopamp.M3:4" (-4.513924850038233e-13 -1.724927483790018e-14)
"Xopamp.M4:1" (-2.001592318379153e-05 9.800682114827208e-10)
"Xopamp.M4:2" (1.491228718189592e-16 8.690165465360963e-12)
"Xopamp.M4:3" (2.001510978622566e-05 -9.928520530045294e-10)
"Xopamp.M4:4" (8.133890396812553e-10 4.093676052785425e-12)
"Xopamp.M5:1" (-3.061176739871385e-08 8.363925850731200e-11)
"Xopamp.M5:2" (-1.502731646373170e-19 3.780396359816473e-15)
"Xopamp.M5:3" (3.061147068413591e-08 -8.364526509559241e-11)
"Xopamp.M5:4" (2.967266751408246e-13 2.226191912074354e-15)
"Xopamp.M6:1" (-6.111509288945172e-02 1.069424258215825e-06)
"Xopamp.M6:2" (-4.697397118188214e-15 -2.684407662848396e-10)
"Xopamp.M6:3" (6.105672682671481e-02 -1.068176599001993e-06)
"Xopamp.M6:4" (5.836606273089741e-05 -9.792184478487824e-10)
"Xopamp.M7:1" (6.111509288939487e-02 -1.071298967833621e-06)
"Xopamp.M7:2" (-1.449934835692322e-15 -8.267576535865555e-11)
"Xopamp.M7:3" (-6.111509257853807e-02 1.071423835298599e-06)
"Xopamp.M7:4" (-3.108936577631368e-10 -4.219169925949367e-11)
"Xopamp.M8:1" (1.450285986535263e-15 8.267198496232248e-11)
"Xopamp.M8:2" (-2.008776783554359e-19 3.523939318294956e-24)
"Xopamp.M8:3" (-1.450129563096477e-15 -8.267198446597863e-11)
"Xopamp.M8:4" (4.445423937398997e-20 -4.963252997150343e-19)
"dd" (0.000000000000000e+00 0.000000000000000e+00)
"net7" (8.706947923869893e-12 4.963285165412621e-07)
"inn" (-5.000000000000000e-01 0.000000000000000e+00)
"inp" (5.000000000000000e-01 0.000000000000000e+00)
"out" (3.108363845796457e+02 -5.449908320043364e-03)
"Xopamp.net1" (2.683302195488732e-01 3.915246552104998e-06)
"Xopamp.net3" (-2.468737941567455e-01 3.796485988489329e-06)
"Xopamp.net2" (-4.834509644219284e+02 8.459590064684762e-03)
"Xopamp.net8" (-4.834509644201334e+02 8.561347443853499e-03)
"vdd:p" (-6.111506227765563e-02 1.070437166848734e-06)
"vin:p" (-1.692216746154158e-19 1.252569178031543e-14)
"vip:p" (-2.088873434060540e-17 -1.217261037639818e-12)
"freq" 2.511886431509581e-01
"Xopamp:1" (6.111506226670261e-02 -1.347600550833583e-06)
"Xopamp:2" (-6.111506226670473e-02 1.348580198405685e-06)
"Xopamp:3" (3.310641284962759e-17 1.532440852802619e-12)
"Xopamp:4" (2.681982800667717e-19 -1.576891168472340e-14)
"Xopamp:5" (-4.164498022576796e-28 6.397873164286442e-24)
"Xopamp:6" (-5.464199573445725e-14 -9.811642433980106e-10)
"Xopamp.M1:1" (-2.004653496859646e-05 -3.792905428530127e-10)
"Xopamp.M1:2" (2.681982800667717e-19 -1.576891168472340e-14)
"Xopamp.M1:3" (2.004657891549119e-05 3.793041175095927e-10)
"Xopamp.M1:4" (-4.394689836716938e-11 2.194254955417746e-15)
"Xopamp.M2:1" (2.001592320155510e-05 4.830694587832501e-10)
"Xopamp.M2:2" (3.310641284962759e-17 1.532440852802619e-12)
"Xopamp.M2:3" (-2.009579820461127e-05 -4.838111545066667e-10)
"Xopamp.M2:4" (7.987500253859952e-08 -7.907451969084111e-13)
"Xopamp.M3:1" (2.004653496835707e-05 3.682409156300337e-10)
"Xopamp.M3:2" (-2.008798704962754e-18 1.093570879039609e-13)
"Xopamp.M3:3" (-2.004653451695875e-05 -3.683285571673691e-10)
"Xopamp.M3:4" (-4.513923379177022e-13 -2.171555043170191e-14)
"Xopamp.M4:1" (-2.001592316958067e-05 1.233832776833393e-09)
"Xopamp.M4:2" (2.363438243438115e-16 1.094027013511809e-11)
"Xopamp.M4:3" (2.001510977606027e-05 -1.249926679455532e-09)
"Xopamp.M4:4" (8.133890818593530e-10 5.153632809575875e-12)
"Xopamp.M5:1" (-3.061176655216880e-08 1.052955879395957e-10)
"Xopamp.M5:2" (-2.381669156004942e-19 4.759237045969304e-15)
"Xopamp.M5:3" (3.061146982598532e-08 -1.053031497862009e-10)
"Xopamp.M5:4" (2.967267181783635e-13 2.802609568691184e-15)
"Xopamp.M6:1" (-6.111509287850936e-02 1.346325374416589e-06)
"Xopamp.M6:2" (-7.444872713570210e-15 -3.379469021769731e-10)
"Xopamp.M6:3" (6.105672681578494e-02 -1.344754664526746e-06)
"Xopamp.M6:4" (5.836606272087782e-05 -1.232762987473791e-09)
"Xopamp.M7:1" (6.111509287842409e-02 -1.348685493993140e-06)
"Xopamp.M7:2" (-2.297991850189606e-15 -1.040826219308656e-10)
"Xopamp.M7:3" (-6.111509256757490e-02 1.348842692817911e-06)
"Xopamp.M7:4" (-3.108940904193396e-10 -5.311620235502486e-11)
"Xopamp.M8:1" (2.298548386769676e-15 1.040778626938190e-10)
"Xopamp.M8:2" (-3.183696648857749e-19 7.031183320772353e-24)
"Xopamp.M8:3" (-2.298300472326782e-15 -1.040778620689929e-10)
"Xopamp.M8:4" (7.045522134722653e-20 -6.248371065586632e-19)
"dd" (0.000000000000000e+00 0.000000000000000e+00)
"net7" (1.379958248918447e-11 6.248405819597354e-07)
"inn" (-5.000000000000000e-01 0.000000000000000e+00)
"inp" (5.000000000000000e-01 0.000000000000000e+00)
"out" (3.108363845238803e+02 -6.861028074822815e-03)
"Xopamp.net1" (2.683302195890369e-01 4.929003377000053e-06)
"Xopamp.net3" (-2.468737941178457e-01 4.779492685573122e-06)
"Xopamp.net2" (-4.834509643353675e+02 1.064999290388660e-02)
"Xopamp.net8" (-4.834509643325226e+02 1.077809785433658e-02)
"vdd:p" (-6.111506226670262e-02 1.347600550833583e-06)
"vin:p" (-2.681982800667717e-19 1.576891168472340e-14)
"vip:p" (-3.310641284962759e-17 -1.532440852802619e-12)
"freq" 3.162277660168380e-01
"Xopamp:1" (6.111506224934328e-02 -1.696528577910879e-06)
"Xopamp:2" (-6.111506224933267e-02 1.697761881133648e-06)
"Xopamp:3" (5.247012833729523e-17 1.929228731127857e-12)
"Xopamp:4" (4.250656281870948e-19 -1.985188364058219e-14)
"Xopamp:5" (-3.618774217255006e-29 3.818544419393048e-24)
"Xopamp:6" (-5.094158869915009e-14 -1.235212598664441e-09)
"Xopamp.M1:1" (-2.004653497347450e-05 -4.774985027155281e-10)
"Xopamp.M1:2" (4.250656281870948e-19 -1.985188364058219e-14)
"Xopamp.M1:3" (2.004657892037270e-05 4.775155921957268e-10)
"Xopamp.M1:4" (-4.394689838467657e-11 2.762403323815235e-15)
"Xopamp.M2:1" (2.001592320866052e-05 6.081484173669702e-10)
"Xopamp.M2:2" (5.247012833729523e-17 1.929228731127857e-12)
"Xopamp.M2:3" (-2.009579821084934e-05 -6.090821567448849e-10)
"Xopamp.M2:4" (7.987500252848405e-08 -9.954892223616838e-13)
"Xopamp.M3:1" (2.004653497309633e-05 4.635878462174472e-10)
"Xopamp.M3:2" (-3.183731391616599e-18 1.376724169546900e-13)
"Xopamp.M3:3" (-2.004653452170249e-05 -4.636981803759391e-10)
"Xopamp.M3:4" (-4.513921048016655e-13 -2.733825827603246e-14)
"Xopamp.M4:1" (-2.001592315536982e-05 1.553303435744904e-09)
"Xopamp.M4:2" (3.745797181764571e-16 1.377298408116019e-11)
"Xopamp.M4:3" (2.001510975996009e-05 -1.573564459199640e-09)
"Xopamp.M4:4" (8.133891487071334e-10 6.488039305177786e-12)
"Xopamp.M5:1" (-3.061176519214559e-08 1.325592913692293e-10)
"Xopamp.M5:2" (-3.774691230971502e-19 5.991524461801448e-15)
"Xopamp.M5:3" (3.061146846592529e-08 -1.325688111701058e-10)
"Xopamp.M5:4" (2.967267863884308e-13 3.528276403469550e-15)
"Xopamp.M6:1" (-6.111509286115790e-02 1.694923225914989e-06)
"Xopamp.M6:2" (-1.179932807912923e-14 -4.254499428669753e-10)
"Xopamp.M6:3" (6.105672679846227e-02 -1.692945819321140e-06)
"Xopamp.M6:4" (5.836606270499789e-05 -1.551956651209733e-09)
"Xopamp.M7:1" (6.111509286105843e-02 -1.697894440423793e-06)
"Xopamp.M7:2" (-3.642071638663295e-15 -1.310322576376647e-10)
"Xopamp.M7:3" (-6.111509255019944e-02 1.698092342019558e-06)
"Xopamp.M7:4" (-3.108947761332101e-10 -6.686933690372939e-11)
"Xopamp.M8:1" (3.642953689700776e-15 1.310262661131927e-10)
"Xopamp.M8:2" (-5.045819144200405e-19 1.402905510559448e-23)
"Xopamp.M8:3" (-3.642560771787409e-15 -1.310262653265915e-10)
"Xopamp.M8:4" (1.116640006547926e-19 -7.866244574202154e-19)
"dd" (0.000000000000000e+00 0.000000000000000e+00)
"net7" (2.187086433970883e-11 7.866276867255766e-07)
"inn" (-5.000000000000000e-01 0.000000000000000e+00)
"inp" (5.000000000000000e-01 0.000000000000000e+00)
"out" (3.108363844354983e+02 -8.637522591977012e-03)
"Xopamp.net1" (2.683302196525467e-01 6.205247604363528e-06)
"Xopamp.net3" (-2.468737940563307e-01 6.017024795646568e-06)
"Xopamp.net2" (-4.834509641981780e+02 1.340754669832643e-02)
"Xopamp.net8" (-4.834509641936692e+02 1.356882127577839e-02)
"vdd:p" (-6.111506224934328e-02 1.696528577910879e-06)
"vin:p" (-4.250656281870948e-19 1.985188364058219e-14)
"vip:p" (-5.247012833729523e-17 -1.929228731127857e-12)
"freq" 3.981071705534974e-01
"Xopamp:1" (6.111506222183064e-02 -2.135802937606634e-06)
"Xopamp:2" (-6.111506222179983e-02 2.137355574373520e-06)
"Xopamp:3" (8.315954917194665e-17 2.428755073709052e-12)
"Xopamp:4" (6.736836201602245e-19 -2.499204079578107e-14)
"Xopamp:5" (9.593521202109419e-28 -1.884745723158769e-23)
"Xopamp:6" (-7.939757076400711e-14 -1.555040530185447e-09)
"Xopamp.M1:1" (-2.004653498120790e-05 -6.011349988921139e-10)
"Xopamp.M1:2" (6.736836201602245e-19 -2.499204079578107e-14)
"Xopamp.M1:3" (2.004657892810957e-05 6.011565132730114e-10)
"Xopamp.M1:4" (-4.394689841242361e-11 3.477659742942486e-15)
"Xopamp.M2:1" (2.001592321576595e-05 7.656134963203790e-10)
"Xopamp.M2:2" (8.315954917194665e-17 2.428755073709052e-12)
"Xopamp.M2:3" (-2.009579822073206e-05 -7.667890046515593e-10)
"Xopamp.M2:4" (7.987500251245214e-08 -1.253246678638674e-12)
"Xopamp.M3:1" (2.004653498061809e-05 5.836225199394543e-10)
"Xopamp.M3:2" (-5.045874206928227e-18 1.733193042723969e-13)
"Xopamp.M3:3" (-2.004653452922081e-05 -5.837614224155237e-10)
"Xopamp.M3:4" (-4.513917353376456e-13 -3.441682807078906e-14)
"Xopamp.M4:1" (-2.001592312694811e-05 1.955493166699851e-09)
"Xopamp.M4:2" (5.936688451049192e-16 1.733915964836169e-11)
"Xopamp.M4:3" (2.001510973444305e-05 -1.981000283891824e-09)
"Xopamp.M4:4" (8.133892546537257e-10 8.167957550309559e-12)
"Xopamp.M5:1" (-3.061176304108848e-08 1.668822603990504e-10)
"Xopamp.M5:2" (-5.982482432908273e-19 7.542882408086815e-15)
"Xopamp.M5:3" (3.061146631037542e-08 -1.668942451181472e-10)
"Xopamp.M5:4" (2.967268944941021e-13 4.441836820383973e-15)
"Xopamp.M6:1" (-6.111509283367411e-02 2.133781919184865e-06)
"Xopamp.M6:2" (-1.870067473981819e-14 -5.356097442807165e-10)
"Xopamp.M6:3" (6.105672677100773e-02 -2.131292511775717e-06)
"Xopamp.M6:4" (5.836606267982993e-05 -1.953797665332363e-09)
"Xopamp.M7:1" (6.111509283351779e-02 -2.137522456633657e-06)
"Xopamp.M7:2" (-5.772294543977536e-15 -1.649598388304592e-10)
"Xopamp.M7:3" (-6.111509252266123e-02 2.137771599980209e-06)
"Xopamp.M7:4" (-3.108958629164547e-10 -8.418350745999537e-11)
"Xopamp.M8:1" (5.773692500662629e-15 1.649522959480043e-10)
"Xopamp.M8:2" (-7.997084408427367e-19 2.799164495422750e-23)
"Xopamp.M8:3" (-5.773069767735801e-15 -1.649522949577636e-10)
"Xopamp.M8:4" (1.769755144009573e-19 -9.903038050400920e-19)
"dd" (0.000000000000000e+00 0.000000000000000e+00)
"net7" (3.466298398965822e-11 9.903055839931693e-07)
"inn" (-5.000000000000000e-01 0.000000000000000e+00)
"inp" (5.000000000000000e-01 0.000000000000000e+00)
"out" (3.108363842954222e+02 -1.087399668109641e-02)
"Xopamp.net1" (2.683302197532027e-01 7.811943892094261e-06)
"Xopamp.net3" (-2.468737939588362e-01 7.574985415231586e-06)
"Xopamp.net2" (-4.834509639807475e+02 1.687910124075022e-02)
"Xopamp.net8" (-4.834509639736015e+02 1.708213390448881e-02)
"vdd:p" (-6.111506222183065e-02 2.135802937606635e-06)
"vin:p" (-6.736836201602245e-19 2.499204079578107e-14)
"vip:p" (-8.315954917194665e-17 -2.428755073709052e-12)
"freq" 5.011872336272725e-01
"Xopamp:1" (6.111506217822602e-02 -2.688816590821390e-06)
"Xopamp:2" (-6.111506217816319e-02 2.690771244701102e-06)
"Xopamp:3" (1.317990032768247e-16 3.057621479178958e-12)
"Xopamp:4" (1.067716582703753e-18 -3.146311526771647e-14)
"Xopamp:5" (-6.059534124726116e-28 3.235357499602112e-23)
"Xopamp:6" (-9.124993434779013e-14 -1.957680037137145e-09)
"Xopamp.M1:1" (-2.004653499347933e-05 -7.567841254849619e-10)
"Xopamp.M1:2" (1.067716582703753e-18 -3.146311526771647e-14)
"Xopamp.M1:3" (2.004657894037754e-05 7.568112104856632e-10)
"Xopamp.M1:4" (-4.394689845638645e-11 4.378114225894086e-15)
"Xopamp.M2:1" (2.001592323352952e-05 9.638502856089415e-10)
"Xopamp.M2:2" (1.317990032768247e-16 3.057621479178958e-12)
"Xopamp.M2:3" (-2.009579823639140e-05 -9.653301627520753e-10)
"Xopamp.M2:4" (7.987500248704326e-08 -1.577744089868188e-12)
"Xopamp.M3:1" (2.004653499253911e-05 7.347372207227688e-10)
"Xopamp.M3:2" (-7.997171674871636e-18 2.181960766328039e-13)
"Xopamp.M3:3" (-2.004653454114343e-05 -7.349120885800675e-10)
"Xopamp.M3:4" (-4.513911497767914e-13 -4.332821947742013e-14)
"Xopamp.M4:1" (-2.001592308431555e-05 2.461820038622553e-09)
"Xopamp.M4:2" (9.409017105124916e-16 2.182870868522003e-11)
"Xopamp.M4:3" (2.001510969399436e-05 -2.493931596385335e-09)
"Xopamp.M4:4" (8.133894225677580e-10 1.028284931516199e-11)
"Xopamp.M5:1" (-3.061175961327489e-08 2.100923182436086e-10)
"Xopamp.M5:2" (-9.481595675150899e-19 9.495926357152880e-15)
"Xopamp.M5:3" (3.061146289404836e-08 -2.101074061113134e-10)
"Xopamp.M5:4" (2.967270658299402e-13 5.591941240685173e-15)
"Xopamp.M6:1" (-6.111509279010363e-02 2.686272279374836e-06)
"Xopamp.M6:2" (-2.963857206844488e-14 -6.742927173989198e-10)
"Xopamp.M6:3" (6.105672672749519e-02 -2.683138301128882e-06)
"Xopamp.M6:4" (5.836606263994133e-05 -2.459685528638094e-09)
"Xopamp.M7:1" (6.111509278989047e-02 -2.690981337018228e-06)
"Xopamp.M7:2" (-9.148470321110549e-15 -2.076721328807730e-10)
"Xopamp.M7:3" (-6.111509247901607e-02 2.691294989908946e-06)
"Xopamp.M7:4" (-3.108975853518185e-10 -1.059807567196616e-10)
"Xopamp.M8:1" (9.150685933140397e-15 2.076626369543924e-10)
"Xopamp.M8:2" (-1.267452462939604e-18 5.585067427135557e-23)
"Xopamp.M8:3" (-9.149698967966777e-15 -2.076626357077133e-10)
"Xopamp.M8:4" (2.804872878059405e-19 -1.246723186840783e-18)
"dd" (0.000000000000000e+00 0.000000000000000e+00)
"net7" (5.493712731644560e-11 1.246720864239739e-06)
"inn" (-5.000000000000000e-01 0.000000000000000e+00)
"inp" (5.000000000000000e-01 0.000000000000000e+00)
"out" (3.108363840734166e+02 -1.368955073984152e-02)
"Xopamp.net1" (2.683302199128240e-01 9.834654674253071e-06)
"Xopamp.net3" (-2.468737938042311e-01 9.536341626411054e-06)
"Xopamp.net2" (-4.834509636361432e+02 2.124952946508304e-02)
"Xopamp.net8" (-4.834509636248175e+02 2.150513244470413e-02)
"vdd:p" (-6.111506217822603e-02 2.688816590821391e-06)
"vin:p" (-1.067716582703753e-18 3.146311526771646e-14)
"vip:p" (-1.317990032768247e-16 -3.057621479178958e-12)
"freq" 6.309573444801935e-01
"Xopamp:1" (6.111506210911733e-02 -3.385019530015416e-06)
"Xopamp:2" (-6.111506210900379e-02 3.387480293453041e-06)
"Xopamp:3" (2.088873428306609e-16 3.849317375521414e-12)
"Xopamp:4" (1.692216741493869e-18 -3.960971537928263e-14)
"Xopamp:5" (1.148777922856121e-27 1.853402296600649e-23)
"Xopamp:6" (-1.620524644009779e-13 -2.464573145263027e-09)
"Xopamp.M1:1" (-2.004653501293079e-05 -9.527347657395258e-10)
"Xopamp.M1:2" (1.692216741493869e-18 -3.960971537928263e-14)
"Xopamp.M1:3" (2.004657895982725e-05 9.527688637353261e-10)
"Xopamp.M1:4" (-4.394689852605738e-11 5.511719258567501e-15)
"Xopamp.M2:1" (2.001592326195123e-05 1.213415616249658e-09)
"Xopamp.M2:2" (2.088873428306609e-16 3.849317375521414e-12)
"Xopamp.M2:3" (-2.009579826120489e-05 -1.215278671287405e-09)
"Xopamp.M2:4" (7.987500244677289e-08 -1.986262125815059e-12)
"Xopamp.M3:1" (2.004653501145454e-05 9.249793571136896e-10)
"Xopamp.M3:2" (-1.267466293211711e-17 2.746925858858442e-13)
"Xopamp.M3:3" (-2.004653456004233e-05 -9.251995027026268e-10)
"Xopamp.M3:4" (-4.513902217254451e-13 -5.454699659931078e-14)
"Xopamp.M4:1" (-2.001592301326127e-05 3.099247801972849e-09)
"Xopamp.M4:2" (1.491228714081932e-15 2.748071604003083e-11)
"Xopamp.M4:3" (2.001510962988470e-05 -3.139673858419092e-09)
"Xopamp.M4:4" (8.133896886935641e-10 1.294534029378513e-11)
"Xopamp.M5:1" (-3.061175420093765e-08 2.644905579600434e-10)
"Xopamp.M5:2" (-1.502731642217654e-18 1.195466303034532e-14)
"Xopamp.M5:3" (3.061145747953042e-08 -2.645095524601470e-10)
"Xopamp.M5:4" (2.967273373789002e-13 7.039836914114640e-15)
"Xopamp.M6:1" (-6.111509272106730e-02 3.381816431683761e-06)
"Xopamp.M6:2" (-4.697397105248913e-14 -8.488842359622208e-10)
"Xopamp.M6:3" (6.105672665853247e-02 -3.377870986834064e-06)
"Xopamp.M6:4" (5.836606257672221e-05 -3.096560613527303e-09)
"Xopamp.M7:1" (6.111509272071203e-02 -3.387744784011035e-06)
"Xopamp.M7:2" (-1.449934831698344e-14 -2.614437251090785e-10)
"Xopamp.M7:3" (-6.111509240984318e-02 3.388139649603755e-06)
"Xopamp.M7:4" (-3.109003152278961e-10 -1.334218676445351e-10)
"Xopamp.M8:1" (1.450285982540482e-14 2.614317704459552e-10)
"Xopamp.M8:2" (-2.008776778005934e-18 1.114367455133684e-22)
"Xopamp.M8:3" (-1.450129559101962e-14 -2.614317688765336e-10)
"Xopamp.M8:4" (4.445423925120325e-19 -1.569540602335657e-18)
"dd" (0.000000000000000e+00 0.000000000000000e+00)
"net7" (8.706947899885795e-11 1.569528575627764e-06)
"inn" (-5.000000000000000e-01 0.000000000000000e+00)
"inp" (5.000000000000000e-01 0.000000000000000e+00)
"out" (3.108363837215614e+02 -1.723412328296598e-02)
"Xopamp.net1" (2.683302201658444e-01 1.238109667163960e-05)
"Xopamp.net3" (-2.468737935591627e-01 1.200554279548147e-05)
"Xopamp.net2" (-4.834509630899821e+02 2.675157260204597e-02)
"Xopamp.net8" (-4.834509630720320e+02 2.707335768805477e-02)
"vdd:p" (-6.111506210911734e-02 3.385019530015417e-06)
"vin:p" (-1.692216741493869e-18 3.960971537928263e-14)
"vip:p" (-2.088873428306609e-16 -3.849317375521414e-12)
"freq" 7.943282347242818e-01
"Xopamp:1" (6.111506199958747e-02 -4.261487098127286e-06)
"Xopamp:2" (-6.111506199939352e-02 4.264585015745728e-06)
"Xopamp:3" (3.310641270509550e-16 4.846003453595668e-12)
"Xopamp:4" (2.681982788962861e-18 -4.986567731382215e-14)
"Xopamp:5" (1.876017543948496e-27 -7.403876709035875e-24)
"Xopamp:6" (-2.195703002319242e-13 -3.102713757151695e-09)
"Xopamp.M1:1" (-2.004653504374468e-05 -1.199422005143083e-09)
"Xopamp.M1:2" (2.681982788962861e-18 -4.986567731382215e-14)
"Xopamp.M1:3" (2.004657899064115e-05 1.199464931976533e-09)
"Xopamp.M1:4" (-4.394689863649383e-11 6.938843444969318e-15)
"Xopamp.M2:1" (2.001592329747837e-05 1.527599751555142e-09)