HEADER
"PSFversion" "1.00"
"simulator" "spectre"
"version" "23.1.0.063"
"date" "10:03:30 AM, Thur Dec 19, 2024"
"design" ""
"analysis type" "tran"
"analysis name" "outtran2"
"analysis description" "Transient Analysis `outtran2': time = (0 s -> 1 us)"
"xVecSorted" "ascending"
"tolerance.relative" 0.00100000
"start" 0.00000
"outputstart" 0.00000
"stop" 1.00000e-06
"step" 1.00000e-09
"istep" 0.00100000
"maxstep" 2.00000e-08
"ic" "all"
"useprevic" "no"
"skipdc" "no"
"reltol" 0.00100000
"abstol(V)" 1.00000e-06
"abstol(I)" 1.00000e-12
"temp" 27.0000
"tnom" 27.0000
"tempeffects" "all"
"errpreset" "moderate"
"method" "traponly"
"lteratio" 14.0000
"relref" "sigglobal"
"cmin" 0.00000
"gmin" 1.00000e-12
"rabsshort" 0.00100000
TYPE
"sweep" FLOAT DOUBLE PROP(
"key" "sweep"
)
"LogicV" FLOAT DOUBLE PROP(
"key" "node"
)
"V" FLOAT DOUBLE PROP(
"units" "V"
"key" "node"
"tolerance" 1.00000e-06
)
"I" FLOAT DOUBLE PROP(
"units" "A"
"key" "branch"
"tolerance" 1.00000e-12
)
"MMF" FLOAT DOUBLE PROP(
"units" "A*turn"
"key" "node"
"tolerance" 1.00000e-12
)
"Wb" FLOAT DOUBLE PROP(
"units" "Wb"
"key" "node"
"tolerance" 1.00000e-09
)
"Temp" FLOAT DOUBLE PROP(
"units" "C"
"key" "node"
"tolerance" 0.000100000
)
"Pwr" FLOAT DOUBLE PROP(
"units" "W"
"key" "node"
"tolerance" 1.00000e-09
)
"U" FLOAT DOUBLE PROP(
"units" ""
"key" "node"
"tolerance" 1.00000e-06
)
"V/Sec" FLOAT DOUBLE PROP(
"units" "V/s"
"key" "node"
"tolerance" 0.000100000
)
"I/Sec" FLOAT DOUBLE PROP(
"units" "A/s"
"key" "node"
"tolerance" 1.00000e-06
)
"1/Sec" FLOAT DOUBLE PROP(
"units" "1/s"
"key" "node"
"tolerance" 0.000100000
)
"HOD" FLOAT DOUBLE PROP(
"units" ""
"key" "node"
"tolerance" 0.0100000
)
"Q" FLOAT DOUBLE PROP(
"units" "Coul"
"key" "node"
"tolerance" 1.00000e-15
)
SWEEP
"time" "sweep" PROP(
"sweep_direction" 0
"units" "s"
"plot" 0
"grid" 1
)
TRACE
"Xopamp:1" "I"
"Xopamp:2" "I"
"Xopamp:3" "I"
"Xopamp:4" "I"
"Xopamp:5" "I"
"Xopamp:6" "I"
"Xopamp.M1:1" "I"
"Xopamp.M1:2" "I"
"Xopamp.M1:3" "I"
"Xopamp.M1:4" "I"
"Xopamp.M2:1" "I"
"Xopamp.M2:2" "I"
"Xopamp.M2:3" "I"
"Xopamp.M2:4" "I"
"Xopamp.M3:1" "I"
"Xopamp.M3:2" "I"
"Xopamp.M3:3" "I"
"Xopamp.M3:4" "I"
"Xopamp.M4:1" "I"
"Xopamp.M4:2" "I"
"Xopamp.M4:3" "I"
"Xopamp.M4:4" "I"
"Xopamp.M5:1" "I"
"Xopamp.M5:2" "I"
"Xopamp.M5:3" "I"
"Xopamp.M5:4" "I"
"Xopamp.M6:1" "I"
"Xopamp.M6:2" "I"
"Xopamp.M6:3" "I"
"Xopamp.M6:4" "I"
"Xopamp.M7:1" "I"
"Xopamp.M7:2" "I"
"Xopamp.M7:3" "I"
"Xopamp.M7:4" "I"
"Xopamp.M8:1" "I"
"Xopamp.M8:2" "I"
"Xopamp.M8:3" "I"
"Xopamp.M8:4" "I"
"dd" "V"
"net7" "V"
"net8" "V"
"inp" "V"
"out" "V"
"Xopamp.net1" "V"
"Xopamp.net3" "V"
"Xopamp.net2" "V"
"Xopamp.net8" "V"
"vcm:p" "I"
"vdd:p" "I"
"vip:p" "I"
VALUE
"time" 0.000000000000000e+00
"Xopamp:1" 2.531628679811214e-05
"Xopamp:2" -3.531413039615462e-05
"Xopamp:3" 0.000000000000000e+00
"Xopamp:4" 0.000000000000000e+00
"Xopamp:5" 9.999999999999999e-06
"Xopamp:6" -1.950746988246886e-09
"Xopamp.M1:1" 5.036847479763409e-06
"Xopamp.M1:2" 0.000000000000000e+00
"Xopamp.M1:3" -5.036831095215281e-06
"Xopamp.M1:4" -1.638454812870935e-11
"Xopamp.M2:1" 5.040401584542211e-06
"Xopamp.M2:2" 0.000000000000000e+00
"Xopamp.M2:3" -5.040391075159796e-06
"Xopamp.M2:4" -1.050938241549585e-11
"Xopamp.M3:1" -5.036950030577373e-06
"Xopamp.M3:2" 0.000000000000000e+00
"Xopamp.M3:3" 5.036949071043081e-06
"Xopamp.M3:4" 9.595342924867945e-13
"Xopamp.M4:1" -5.040504822705039e-06
"Xopamp.M4:2" -8.470329472543003e-22
"Xopamp.M4:3" 5.040503788644125e-06
"Xopamp.M4:4" 1.034060914429577e-12
"Xopamp.M5:1" 1.007724919831315e-05
"Xopamp.M5:2" 0.000000000000000e+00
"Xopamp.M5:3" -1.007724812746442e-05
"Xopamp.M5:4" -1.070848728039481e-12
"Xopamp.M6:1" -1.523883194482972e-05
"Xopamp.M6:2" 0.000000000000000e+00
"Xopamp.M6:3" 1.523882731477393e-05
"Xopamp.M6:4" 4.630055795596839e-12
"Xopamp.M7:1" 1.523688119784148e-05
"Xopamp.M7:2" 1.694065894508601e-21
"Xopamp.M7:3" -1.523676525780552e-05
"Xopamp.M7:4" -1.159400359594518e-10
"Xopamp.M8:1" 9.999999999999996e-06
"Xopamp.M8:2" 1.694065894508601e-21
"Xopamp.M8:3" -9.999999430969699e-06
"Xopamp.M8:4" -5.690302969380259e-13
"dd" 3.300000000000000e+00
"net7" 5.690195099604625e-01
"net8" 1.650000000000000e+00
"inp" 1.650000000000000e+00
"out" 1.649909958747117e+00
"Xopamp.net1" 2.623752060078579e+00
"Xopamp.net3" 1.062595320803919e+00
"Xopamp.net2" 2.580056412174487e+00
"Xopamp.net8" 2.580056412174487e+00
"vcm:p" 0.000000000000000e+00
"vdd:p" -3.531413039634399e-05
"vip:p" 0.000000000000000e+00
"time" 1.000000000000000e-09
"Xopamp:1" 2.531600812282191e-05
"Xopamp:2" -3.531416565600041e-05
"Xopamp:3" -1.433408411491979e-11
"Xopamp:4" 1.851963134934285e-11
"Xopamp:5" 1.000000000000017e-05
"Xopamp:6" -1.846652368735188e-09
"Xopamp.M1:1" 5.036885595078275e-06
"Xopamp.M1:2" 1.851963134934285e-11
"Xopamp.M1:3" -5.036884980564304e-06
"Xopamp.M1:4" -1.913414532073640e-11
"Xopamp.M2:1" 5.040369518743018e-06
"Xopamp.M2:2" -1.433408411491979e-11
"Xopamp.M2:3" -5.040347356790741e-06
"Xopamp.M2:4" -7.827868159159801e-12
"Xopamp.M3:1" -5.036940925708734e-06
"Xopamp.M3:2" 2.893980371673005e-11
"Xopamp.M3:3" 5.036916764974534e-06
"Xopamp.M3:4" -4.779069513417891e-12
"Xopamp.M4:1" -5.040491900272722e-06
"Xopamp.M4:2" 2.639082664101357e-11
"Xopamp.M4:3" 5.040471456392929e-06
"Xopamp.M4:4" -5.946946864830429e-12
"Xopamp.M5:1" 1.007725929936852e-05
"Xopamp.M5:2" -4.721791193032486e-13
"Xopamp.M5:3" -1.007725395309936e-05
"Xopamp.M5:4" -4.874089968410918e-12
"Xopamp.M6:1" -1.523875957811117e-05
"Xopamp.M6:2" 1.289506403756442e-10
"Xopamp.M6:3" 1.523865540112294e-05
"Xopamp.M6:4" -2.477365211160920e-11
"Xopamp.M7:1" 1.523690635663187e-05
"Xopamp.M7:2" -6.248100880932016e-12
"Xopamp.M7:3" -1.523677408629625e-05
"Xopamp.M7:4" -1.260222346878836e-10
"Xopamp.M8:1" 1.000000235756654e-05
"Xopamp.M8:2" 4.362713623930994e-12
"Xopamp.M8:3" -1.000000518670841e-05
"Xopamp.M8:4" -1.533571724845098e-12
"dd" 3.300000000000000e+00
"net7" 5.690195234669954e-01
"net8" 1.650000000000000e+00
"inp" 1.650000000000000e+00
"out" 1.649910872813486e+00
"Xopamp.net1" 2.623752172099306e+00
"Xopamp.net3" 1.062595730021224e+00
"Xopamp.net2" 2.580056709998563e+00
"Xopamp.net8" 2.580057320268937e+00
"vcm:p" 1.433408412052348e-11
"vdd:p" -3.531600812282187e-05
"vip:p" 1.433408412052348e-11
"time" 3.000000000000000e-09
"Xopamp:1" 2.531584447318791e-05
"Xopamp:2" -3.531417194024231e-05
"Xopamp:3" -1.423631432253560e-11
"Xopamp:4" 1.611562333684214e-11
"Xopamp:5" 9.999999999999996e-06
"Xopamp:6" -1.674412254602073e-09
"Xopamp.M1:1" 5.036953796955388e-06
"Xopamp.M1:2" 1.611562333684214e-11
"Xopamp.M1:3" -5.036951376123475e-06
"Xopamp.M1:4" -1.853645525067977e-11
"Xopamp.M2:1" 5.040306773247715e-06
"Xopamp.M2:2" -1.423631432253560e-11
"Xopamp.M2:3" -5.040284442959139e-06
"Xopamp.M2:4" -8.093974253861140e-12
"Xopamp.M3:1" -5.036943051374321e-06
"Xopamp.M3:2" -2.304648564418311e-12
"Xopamp.M3:3" 5.036943939489633e-06
"Xopamp.M3:4" 1.416533247026337e-12
"Xopamp.M4:1" -5.040488592814391e-06
"Xopamp.M4:2" -8.440932488868407e-12
"Xopamp.M4:3" 5.040498553632688e-06
"Xopamp.M4:4" -1.519885808562227e-12
"Xopamp.M5:1" 1.007726244951211e-05
"Xopamp.M5:2" -1.641934280333447e-12
"Xopamp.M5:3" -1.007725626090734e-05
"Xopamp.M5:4" -4.546670509462110e-12
"Xopamp.M6:1" -1.523859859251942e-05
"Xopamp.M6:2" 1.965091012579892e-10
"Xopamp.M6:3" 1.523843591822704e-05
"Xopamp.M6:4" -3.383480889621658e-11
"Xopamp.M7:1" 1.523690949073015e-05
"Xopamp.M7:2" -6.989812390263309e-12
"Xopamp.M7:3" -1.523677766499271e-05
"Xopamp.M7:4" -1.248359250730137e-10
"Xopamp.M8:1" 1.000000552871022e-05
"Xopamp.M8:2" 3.103036448128368e-12
"Xopamp.M8:3" -1.000000737667381e-05
"Xopamp.M8:4" -1.255072870680919e-12
"dd" 3.300000000000000e+00
"net7" 5.690195426803878e-01
"net8" 1.650000000000000e+00
"inp" 1.650000000000000e+00
"out" 1.649912531110117e+00
"Xopamp.net1" 2.623752154257554e+00
"Xopamp.net3" 1.062596526000210e+00
"Xopamp.net2" 2.580057587199559e+00
"Xopamp.net8" 2.580058951857323e+00
"vcm:p" 1.423631432215931e-11
"vdd:p" -3.531584447318798e-05
"vip:p" 1.423631432215931e-11
"time" 7.000000000000001e-09
"Xopamp:1" 2.531541741055440e-05
"Xopamp:2" -3.531417620053454e-05
"Xopamp:3" -1.190240761711746e-11
"Xopamp:4" 1.169837354025635e-11
"Xopamp:5" 1.000000000000009e-05
"Xopamp:6" -1.241005985780521e-09
"Xopamp.M1:1" 5.037070231366609e-06
"Xopamp.M1:2" 1.169837354025635e-11
"Xopamp.M1:3" -5.037064284438818e-06
"Xopamp.M1:4" -1.764530133249090e-11
"Xopamp.M2:1" 5.040195104360335e-06
"Xopamp.M2:2" -1.190240761711746e-11
"Xopamp.M2:3" -5.040174099073632e-06
"Xopamp.M2:4" -9.102879087766101e-12
"Xopamp.M3:1" -5.036970698834618e-06
"Xopamp.M3:2" -4.367301575846887e-11
"Xopamp.M3:3" 5.037004752197238e-06
"Xopamp.M3:4" 9.619653145585116e-12
"Xopamp.M4:1" -5.040507001492959e-06
"Xopamp.M4:2" -5.585951623203680e-11
"Xopamp.M4:3" 5.040559157378707e-06
"Xopamp.M4:4" 3.703630495016516e-12
"Xopamp.M5:1" 1.007726513169285e-05
"Xopamp.M5:2" -2.938600020643957e-12
"Xopamp.M5:3" -1.007725871001594e-05
"Xopamp.M5:4" -3.483076883183730e-12
"Xopamp.M6:1" -1.523817222591854e-05
"Xopamp.M6:2" 3.320482237268036e-10
"Xopamp.M6:3" 1.523789169493286e-05
"Xopamp.M6:4" -5.151723805256262e-11
"Xopamp.M7:1" 1.523691106884167e-05
"Xopamp.M7:2" -7.442334004576212e-12
"Xopamp.M7:3" -1.523678151812287e-05
"Xopamp.M7:4" -1.221083847653099e-10
"Xopamp.M8:1" 1.000000954149831e-05
"Xopamp.M8:2" 8.394358002184640e-13
"Xopamp.M8:3" -1.000000962631497e-05
"Xopamp.M8:4" -7.546191076794280e-13
"dd" 3.300000000000000e+00
"net7" 5.690195670914016e-01
"net8" 1.650000000000000e+00
"inp" 1.650000000000000e+00
"out" 1.649915418714361e+00
"Xopamp.net1" 2.623751798315168e+00
"Xopamp.net3" 1.062597945739998e+00
"Xopamp.net2" 2.580059904078608e+00
"Xopamp.net8" 2.580061776114975e+00
"vcm:p" 1.190240761853530e-11
"vdd:p" -3.531541741055428e-05
"vip:p" 1.190240761853530e-11
"time" 1.000000000000000e-08
"Xopamp:1" 2.531497830201250e-05
"Xopamp:2" -3.531417015419984e-05
"Xopamp:3" -8.644929015950442e-12
"Xopamp:4" 7.733004505264925e-12
"Xopamp:5" 9.999999999999699e-06
"Xopamp:6" -8.072358882377164e-10
"Xopamp.M1:1" 5.037129933940809e-06
"Xopamp.M1:2" 7.733004505264925e-12
"Xopamp.M1:3" -5.037120587513033e-06
"Xopamp.M1:4" -1.707943228033388e-11
"Xopamp.M2:1" 5.040134464585664e-06
"Xopamp.M2:2" -8.644929015950442e-12
"Xopamp.M2:3" -5.040115678708769e-06
"Xopamp.M2:4" -1.014094787719256e-11
"Xopamp.M3:1" -5.037012133062016e-06
"Xopamp.M3:2" -5.137416439851406e-11
"Xopamp.M3:3" 5.037052360476966e-06
"Xopamp.M3:4" 1.114674943379023e-11
"Xopamp.M4:1" -5.040543942412767e-06
"Xopamp.M4:2" -6.642671444495265e-11
"Xopamp.M4:3" 5.040606546559726e-06
"Xopamp.M4:4" 3.822567461663064e-12
"Xopamp.M5:1" 1.007726348660197e-05
"Xopamp.M5:2" -2.966440726902961e-12
"Xopamp.M5:3" -1.007725806561954e-05
"Xopamp.M5:4" -2.454541713421610e-12
"Xopamp.M6:1" -1.523772385216445e-05
"Xopamp.M6:2" 4.194265055099634e-10
"Xopamp.M6:3" 1.523736648012067e-05
"Xopamp.M6:4" -6.205446175672601e-11
"Xopamp.M7:1" 1.523690666759808e-05
"Xopamp.M7:2" -6.387708813881481e-12
"Xopamp.M7:3" -1.523678061878232e-05
"Xopamp.M7:4" -1.196611069740140e-10
"Xopamp.M8:1" 1.000000980815627e-05
"Xopamp.M8:2" -4.540070288792895e-13
"Xopamp.M8:3" -1.000000888549422e-05
"Xopamp.M8:4" -4.686550707443844e-13
"dd" 3.300000000000000e+00
"net7" 5.690195688812761e-01
"net8" 1.650000000000000e+00
"inp" 1.650000000000000e+00
"out" 1.649916940322232e+00
"Xopamp.net1" 2.623751246449594e+00
"Xopamp.net3" 1.062598720006359e+00
"Xopamp.net2" 2.580062332445487e+00
"Xopamp.net8" 2.580063256677707e+00
"vcm:p" 8.644929016736199e-12
"vdd:p" -3.531497830201261e-05
"vip:p" 8.644929016736199e-12
"time" 1.000837500000000e-08
"Xopamp:1" 2.589249666182125e-05
"Xopamp:2" -3.382122384696378e-05
"Xopamp:3" -4.550596463725169e-06
"Xopamp:4" 2.517410106947761e-06
"Xopamp:5" 1.000000000001329e-05
"Xopamp:6" -3.808645812086928e-08
"Xopamp.M1:1" 5.185931647953902e-06
"Xopamp.M1:2" 2.517410106947761e-06
"Xopamp.M1:3" -7.140632927427146e-06
"Xopamp.M1:4" -5.627088274741390e-07
"Xopamp.M2:1" 5.451243244385433e-06
"Xopamp.M2:2" -4.550596463725169e-06
"Xopamp.M2:3" -1.570387792782450e-06
"Xopamp.M2:4" 6.697410121220918e-07
"Xopamp.M3:1" -5.039159310448550e-06
"Xopamp.M3:2" -7.732711750389899e-08
"Xopamp.M3:3" 5.101151927028717e-06
"Xopamp.M3:4" 1.533450092797141e-08
"Xopamp.M4:1" -5.054459997990318e-06
"Xopamp.M4:2" -6.944522000755359e-08
"Xopamp.M4:3" 5.104725520044799e-06
"Xopamp.M4:4" 1.917969795608625e-08
"Xopamp.M5:1" 8.603988535563894e-06
"Xopamp.M5:2" 6.590461881283017e-07
"Xopamp.M5:3" -9.864132590174755e-06
"Xopamp.M5:4" 6.010978664833127e-07
"Xopamp.M6:1" -1.525529874591829e-05
"Xopamp.M6:2" -3.968062699438786e-07
"Xopamp.M6:3" 1.557931937435833e-05
"Xopamp.M6:4" 7.278564150534165e-08
"Xopamp.M7:1" 1.521723531138498e-05
"Xopamp.M7:2" -3.888404760234404e-07
"Xopamp.M7:3" -1.491757545887606e-05
"Xopamp.M7:4" 8.918062351451449e-08
"Xopamp.M8:1" 9.992452255106146e-06
"Xopamp.M8:2" -2.626579671977171e-07
"Xopamp.M8:3" -9.787864109938334e-06
"Xopamp.M8:4" 5.806982202754882e-08
"dd" 3.300000000000000e+00
"net7" 5.690127586388427e-01
"net8" 1.650000000000000e+00
"inp" 1.648325000000000e+00
"out" 1.649906558154453e+00
"Xopamp.net1" 2.623748739650992e+00
"Xopamp.net3" 1.061959999489855e+00
"Xopamp.net2" 2.580055013573447e+00
"Xopamp.net8" 2.580052874685220e+00
"vcm:p" 4.550596463725204e-06
"vdd:p" -3.589249666182360e-05
"vip:p" 4.550596463725204e-06
"time" 1.011197166398171e-08
"Xopamp:1" 2.563716233862069e-05
"Xopamp:2" -3.375452256553645e-05
"Xopamp:3" -4.397489486580443e-06
"Xopamp:4" 2.599451565210015e-06
"Xopamp:5" 9.999999999981961e-06
"Xopamp:6" -8.460185167768985e-08
"Xopamp.M1:1" 5.835482424140768e-06
"Xopamp.M1:2" 2.599451565210015e-06
"Xopamp.M1:3" -7.869388302560586e-06
"Xopamp.M1:4" -5.655456867904983e-07
"Xopamp.M2:1" 4.521637472780320e-06
"Xopamp.M2:2" -4.397489486580443e-06
"Xopamp.M2:3" -7.953252628557699e-07
"Xopamp.M2:4" 6.711772766560174e-07
"Xopamp.M3:1" -5.053457507300314e-06
"Xopamp.M3:2" -3.742948786185218e-07
"Xopamp.M3:3" 5.353530813879018e-06
"Xopamp.M3:4" 7.422157203500009e-08
"Xopamp.M4:1" -5.007009145221936e-06
"Xopamp.M4:2" -4.077300382139207e-07
"Xopamp.M4:3" 5.357024186403446e-06
"Xopamp.M4:4" 5.771499702964036e-08
"Xopamp.M5:1" 8.559081975548429e-06
"Xopamp.M5:2" 6.773290248527146e-07
"Xopamp.M5:3" -9.847629598809679e-06
"Xopamp.M5:4" 6.112185984085765e-07
"Xopamp.M6:1" -1.527856272035907e-05
"Xopamp.M6:2" 4.838919510854409e-07
"Xopamp.M6:3" 1.485226270368078e-05
"Xopamp.M6:4" -5.759193440719658e-08
"Xopamp.M7:1" 1.519544059000846e-05
"Xopamp.M7:2" -3.912655468507256e-07
"Xopamp.M7:3" -1.489403653838320e-05
"Xopamp.M7:4" 8.986149522535132e-08
"Xopamp.M8:1" 9.978324791086656e-06
"Xopamp.M8:2" -2.643882691066850e-07
"Xopamp.M8:3" -9.772388892205386e-06
"Xopamp.M8:4" 5.845237022789235e-08
"dd" 3.300000000000000e+00
"net7" 5.689282401605895e-01
"net8" 1.650000000000000e+00
"inp" 1.627605667203659e+00
"out" 1.649777213229531e+00
"Xopamp.net1" 2.623658188564119e+00
"Xopamp.net3" 1.053997793448485e+00
"Xopamp.net2" 2.580061066637422e+00
"Xopamp.net8" 2.579923600523644e+00
"vcm:p" 4.397489486580445e-06
"vdd:p" -3.563716233862082e-05
"vip:p" 4.397489486580445e-06
"time" 1.031916499194512e-08
"Xopamp:1" 2.552418922809462e-05
"Xopamp:2" -3.372689468622096e-05
"Xopamp:3" -4.285417889645136e-06
"Xopamp:4" 2.564648617517776e-06
"Xopamp:5" 1.000000000001979e-05
"Xopamp:6" -7.652526978774410e-08
"Xopamp.M1:1" 7.267451648214780e-06
"Xopamp.M1:2" 2.564648617517776e-06
"Xopamp.M1:3" -9.296491645204444e-06
"Xopamp.M1:4" -5.356086205277817e-07
"Xopamp.M2:1" 3.026938965926860e-06
"Xopamp.M2:2" -4.285417889645136e-06
"Xopamp.M2:3" 5.436228939623786e-07
"Xopamp.M2:4" 7.148560297557571e-07
"Xopamp.M3:1" -5.111787723008955e-06
"Xopamp.M3:2" -1.023129099774176e-06
"Xopamp.M3:3" 5.932034998343979e-06
"Xopamp.M3:4" 2.028818244439941e-07
"Xopamp.M4:1" -4.951720414954566e-06
"Xopamp.M4:2" -1.132534825438871e-06
"Xopamp.M4:3" 5.935329859321912e-06
"Xopamp.M4:4" 1.489253810737860e-07
"Xopamp.M5:1" 8.573621342016469e-06
"Xopamp.M5:2" 6.667769272695764e-07
"Xopamp.M5:3" -9.830127794647629e-06
"Xopamp.M5:4" 5.897295253614543e-07
"Xopamp.M6:1" -1.521995120738692e-05
"Xopamp.M6:2" 1.914934042476442e-06
"Xopamp.M6:3" 1.357493407745993e-05
"Xopamp.M6:4" -2.699169125489805e-07
"Xopamp.M7:1" 1.515327334418261e-05
"Xopamp.M7:2" -3.684646051076095e-07
"Xopamp.M7:3" -1.487016608581074e-05
"Xopamp.M7:4" 8.535734673585397e-08
"Xopamp.M8:1" 9.951219355340422e-06
"Xopamp.M8:2" -2.495316774825992e-07
"Xopamp.M8:3" -9.756855441673111e-06
"Xopamp.M8:4" 5.516776381320744e-08
"dd" 3.300000000000000e+00
"net7" 5.687634131346563e-01
"net8" 1.650000000000000e+00
"inp" 1.586167001610976e+00
"out" 1.649518067569963e+00
"Xopamp.net1" 2.623097816123659e+00
"Xopamp.net3" 1.038244892500917e+00
"Xopamp.net2" 2.580580345708068e+00
"Xopamp.net8" 2.579665521639225e+00
"vcm:p" 4.285417889645148e-06
"vdd:p" -3.552418922809559e-05
"vip:p" 4.285417889645148e-06
"time" 1.065958249597256e-08
"Xopamp:1" 2.605069954396850e-05
"Xopamp:2" -3.394704641732272e-05
"Xopamp:3" -4.285276744243870e-06
"Xopamp:4" 2.050088232351396e-06
"Xopamp:5" 1.000029551060400e-05
"Xopamp:6" 1.647124429756533e-07
"Xopamp.M1:1" 9.660693004915937e-06
"Xopamp.M1:2" 2.050088232351396e-06
"Xopamp.M1:3" -1.131143916724633e-05
"Xopamp.M1:4" -3.993420700213859e-07
"Xopamp.M2:1" 1.438288407130505e-06
"Xopamp.M2:2" -4.285276744243870e-06
"Xopamp.M2:3" 1.924984178802393e-06
"Xopamp.M2:4" 9.220041583111037e-07
"Xopamp.M3:1" -5.293976523959904e-06
"Xopamp.M3:2" -2.087827808676914e-06
"Xopamp.M3:3" 6.971661804797793e-06
"Xopamp.M3:4" 4.101425278342120e-07
"Xopamp.M4:1" -4.979989595839130e-06
"Xopamp.M4:2" -2.300297208815596e-06
"Xopamp.M4:3" 6.974513451887013e-06
"Xopamp.M4:4" 3.057733527655304e-07
"Xopamp.M5:1" 8.851008485116820e-06
"Xopamp.M5:2" 5.363303537411388e-07
"Xopamp.M5:3" -9.842820602216976e-06
"Xopamp.M5:4" 4.554817633592381e-07
"Xopamp.M6:1" -1.489602727717077e-05
"Xopamp.M6:2" 3.507418870486014e-06
"Xopamp.M6:3" 1.189618174665202e-05
"Xopamp.M6:4" -5.075733399680713e-07
"Xopamp.M7:1" 1.509574242160417e-05
"Xopamp.M7:2" -2.677137622612760e-07
"Xopamp.M7:3" -1.489251648317930e-05
"Xopamp.M7:4" 6.448782383638868e-08
"Xopamp.M8:1" 9.914844012421734e-06
"Xopamp.M8:2" -1.831650932975943e-07
"Xopamp.M8:3" -9.772173861562002e-06
"Xopamp.M8:4" 4.049494243993790e-08
"dd" 3.300000000000000e+00
"net7" 5.685354037516601e-01
"net8" 1.650000000000000e+00
"inp" 1.518083500805488e+00
"out" 1.649117944739487e+00
"Xopamp.net1" 2.621055770699549e+00
"Xopamp.net3" 1.015757411449467e+00
"Xopamp.net2" 2.582524089668700e+00
"Xopamp.net8" 2.579272338700492e+00
"vcm:p" 4.288235766540401e-06
"vdd:p" -3.602190796867871e-05
"vip:p" 4.288235766540401e-06
"time" 1.100000000000000e-08
"Xopamp:1" 2.669285427903713e-05
"Xopamp:2" -3.435115148497650e-05
"Xopamp:3" -4.161374748172841e-06
"Xopamp:4" 1.215631623327919e-06
"Xopamp:5" 1.000099721105209e-05
"Xopamp:6" 5.875620266903595e-07
"Xopamp.M1:1" 1.155838711517464e-05
"Xopamp.M1:2" 1.215631623327919e-06
"Xopamp.M1:3" -1.254911845914725e-05
"Xopamp.M1:4" -2.249002793549018e-07
"Xopamp.M2:1" 7.117846788112648e-07
"Xopamp.M2:2" -4.161374748172841e-06
"Xopamp.M2:3" 2.178228265789191e-06
"Xopamp.M2:4" 1.271361803572245e-06
"Xopamp.M3:1" -5.563194122010540e-06
"Xopamp.M3:2" -2.835127725695309e-06
"Xopamp.M3:3" 7.846040271823668e-06
"Xopamp.M3:4" 5.522815758869800e-07
"Xopamp.M4:1" -5.149775060216225e-06
"Xopamp.M4:2" -3.114264956035750e-06
"Xopamp.M4:3" 7.848350708312123e-06
"Xopamp.M4:4" 4.156893079420015e-07
"Xopamp.M5:1" 9.290444387272553e-06
"Xopamp.M5:2" 3.331742781752733e-07
"Xopamp.M5:3" -9.888974811193737e-06
"Xopamp.M5:4" 2.653561457454280e-07
"Xopamp.M6:1" -1.440298168303271e-05
"Xopamp.M6:2" 4.372489267961298e-06
"Xopamp.M6:3" 1.068006895652042e-05
"Xopamp.M6:4" -6.495765414480628e-07
"Xopamp.M7:1" 1.505970988664902e-05
"Xopamp.M7:2" -1.316181163661771e-07
"Xopamp.M7:3" -1.496412480919408e-05
"Xopamp.M7:4" 3.603303891117598e-08
"Xopamp.M8:1" 9.892760851683377e-06
"Xopamp.M8:2" -9.331980244038054e-08
"Xopamp.M8:3" -9.820072321857705e-06
"Xopamp.M8:4" 2.063127261241091e-08
"dd" 3.300000000000000e+00
"net7" 5.683897101511018e-01
"net8" 1.650000000000000e+00
"inp" 1.450000000000000e+00
"out" 1.648776415396306e+00
"Xopamp.net1" 2.617839485696758e+00
"Xopamp.net3" 1.000221244238572e+00
"Xopamp.net2" 2.585372465786220e+00
"Xopamp.net8" 2.578946927952573e+00
"vcm:p" 4.169940011491493e-06
"vdd:p" -3.672164585432807e-05
"vip:p" 4.169940011491493e-06
"time" 1.100837500000000e-08
"Xopamp:1" 2.617905978937839e-05
"Xopamp:2" -3.548411303742557e-05
"Xopamp:3" -5.300238492095996e-07
"Xopamp:4" -7.922952560214298e-07
"Xopamp:5" 1.000000000002414e-05
"Xopamp:6" 6.273723531981689e-07
"Xopamp.M1:1" 1.146225825017254e-05
"Xopamp.M1:2" -7.922952560214298e-07
"Xopamp.M1:3" -1.084416461633569e-05
"Xopamp.M1:4" 1.742016221848627e-07
"Xopamp.M2:1" 2.692495963815793e-07
"Xopamp.M2:2" -5.300238492095996e-07
"Xopamp.M2:3" 6.710950143545621e-08
"Xopamp.M2:4" 1.936647513927525e-07
"Xopamp.M3:1" -5.569485698749673e-06
"Xopamp.M3:2" -2.801588530969401e-06
"Xopamp.M3:3" 7.824571757666753e-06
"Xopamp.M3:4" 5.465024720514713e-07
"Xopamp.M4:1" -5.140397222515971e-06
"Xopamp.M4:2" -3.091184020460983e-06
"Xopamp.M4:3" 7.826851428843495e-06
"Xopamp.M4:4" 4.047298141344953e-07
"Xopamp.M5:1" 1.040918874132246e-05
"Xopamp.M5:2" -1.725992221273086e-07
"Xopamp.M5:3" -1.005180203038543e-05
"Xopamp.M5:4" -1.847874888082150e-07
"Xopamp.M6:1" -1.437747700865786e-05
"Xopamp.M6:2" 4.801072691977195e-06
"Xopamp.M6:3" 1.029559095011438e-05
"Xopamp.M6:4" -7.191866334322051e-07
"Xopamp.M7:1" 1.507492429608782e-05
"Xopamp.M7:2" 1.662538043991796e-07
"Xopamp.M7:3" -1.520840299179228e-05
"Xopamp.M7:4" -3.277510868718707e-08
"Xopamp.M8:1" 9.898155733141022e-06
"Xopamp.M8:2" 1.081896846112448e-07
"Xopamp.M8:3" -9.982425463387532e-06
"Xopamp.M8:4" -2.391995436492567e-08
"dd" 3.300000000000000e+00
"net7" 5.683925153124638e-01
"net8" 1.650000000000000e+00
"inp" 1.450000000000000e+00
"out" 1.648777106010961e+00
"Xopamp.net1" 2.617749542153707e+00
"Xopamp.net3" 1.000408431425927e+00
"Xopamp.net2" 2.585458113477161e+00
"Xopamp.net8" 2.578948152092296e+00
"vcm:p" 5.300238492096834e-07
"vdd:p" -3.617905978937849e-05
"vip:p" 5.300238492096834e-07
"time" 1.106017333199085e-08
"Xopamp:1" 2.594088704642926e-05
"Xopamp:2" -3.545424654267983e-05
"Xopamp:3" -4.749047027035394e-07
"Xopamp:4" -7.295381416098165e-07
"Xopamp:5" 9.999999999959652e-06
"Xopamp:6" 7.178023406531030e-07
"Xopamp.M1:1" 1.131679211041288e-05
"Xopamp.M1:2" -7.295381416098165e-07
"Xopamp.M1:3" -1.074907405085123e-05
"Xopamp.M1:4" 1.618200820478566e-07
"Xopamp.M2:1" 2.642226008374468e-07
"Xopamp.M2:2" -4.749047027035394e-07
"Xopamp.M2:3" 2.952842968686314e-08
"Xopamp.M2:4" 1.811536721789343e-07
"Xopamp.M3:1" -5.610184952629750e-06
"Xopamp.M3:2" -2.710271051860252e-06
"Xopamp.M3:3" 7.791766689653124e-06
"Xopamp.M3:4" 5.286893148379392e-07
"Xopamp.M4:1" -5.186301416711670e-06
"Xopamp.M4:2" -2.996336105917086e-06
"Xopamp.M4:3" 7.793980072965784e-06
"Xopamp.M4:4" 3.886574496612038e-07
"Xopamp.M5:1" 1.037657186693779e-05
"Xopamp.M5:2" -1.573927333138051e-07
"Xopamp.M5:3" -1.004876253264729e-05
"Xopamp.M5:4" -1.704166009778347e-07
"Xopamp.M6:1" -1.428413063985540e-05
"Xopamp.M6:2" 4.846337120543658e-06
"Xopamp.M6:3" 1.016288921468027e-05
"Xopamp.M6:4" -7.250956953690651e-07
"Xopamp.M7:1" 1.507767467577198e-05
"Xopamp.M7:2" 1.558581175750549e-07
"Xopamp.M7:3" -1.520368075969415e-05
"Xopamp.M7:4" -2.985203366260879e-08
"Xopamp.M8:1" 9.900766428015993e-06
"Xopamp.M8:2" 1.007681876824099e-07
"Xopamp.M8:3" -9.979255461453461e-06
"Xopamp.M8:4" -2.227915424447780e-08
"dd" 3.300000000000000e+00
"net7" 5.684092698210522e-01
"net8" 1.650000000000000e+00
"inp" 1.450000000000000e+00
"out" 1.648779393667507e+00
"Xopamp.net1" 2.617202318641629e+00
"Xopamp.net3" 1.001520917037328e+00
"Xopamp.net2" 2.585990276451724e+00
"Xopamp.net8" 2.578953872957108e+00
"vcm:p" 4.749047027032853e-07
"vdd:p" -3.594088704642529e-05
"vip:p" 4.749047027032853e-07
"time" 1.116376999597256e-08
"Xopamp:1" 2.550319197879751e-05
"Xopamp:2" -3.539198801589470e-05
"Xopamp:3" -4.065580813407381e-07
"Xopamp:4" -6.048236366175844e-07
"Xopamp:5" 1.000000000003834e-05
"Xopamp:6" 9.001777549680648e-07
"Xopamp.M1:1" 1.106407629628070e-05
"Xopamp.M1:2" -6.048236366175844e-07
"Xopamp.M1:3" -1.059493720685584e-05
"Xopamp.M1:4" 1.356845471929315e-07
"Xopamp.M2:1" 2.570338153374437e-07
"Xopamp.M2:2" -4.065580813407381e-07
"Xopamp.M2:3" 5.728983998524951e-09
"Xopamp.M2:4" 1.437952820051408e-07
"Xopamp.M3:1" -5.688140187075948e-06
"Xopamp.M3:2" -2.548041392157415e-06
"Xopamp.M3:3" 7.739138149162254e-06
"Xopamp.M3:4" 4.970434300700633e-07
"Xopamp.M4:1" -5.273398907916777e-06
"Xopamp.M4:2" -2.827894717054256e-06
"Xopamp.M4:3" 7.741218831587089e-06
"Xopamp.M4:4" 3.600747933858629e-07
"Xopamp.M5:1" 1.030972839365923e-05
"Xopamp.M5:2" -1.266337867960690e-07
"Xopamp.M5:3" -1.004211889025678e-05
"Xopamp.M5:4" -1.409757166057248e-07
"Xopamp.M6:1" -1.409473864218125e-05
"Xopamp.M6:2" 4.929021867589182e-06
"Xopamp.M6:3" 9.901453048253842e-06
"Xopamp.M6:4" -7.357362736616031e-07
"Xopamp.M7:1" 1.508225962220733e-05
"Xopamp.M7:2" 1.352171077174288e-07
"Xopamp.M7:3" -1.519344665718492e-05
"Xopamp.M7:4" -2.403007272986220e-08
"Xopamp.M8:1" 9.905397610132460e-06
"Xopamp.M8:2" 8.601906898452216e-08
"Xopamp.M8:3" -9.972398370496306e-06
"Xopamp.M8:4" -1.901830862110672e-08
"dd" 3.300000000000000e+00
"net7" 5.684392235017791e-01
"net8" 1.650000000000000e+00
"inp" 1.450000000000000e+00
"out" 1.648772048189626e+00
"Xopamp.net1" 2.616158216497888e+00
"Xopamp.net3" 1.003467124367635e+00
"Xopamp.net2" 2.587068392652085e+00
"Xopamp.net8" 2.578954207049086e+00
"vcm:p" 4.065580813410935e-07
"vdd:p" -3.550319197879862e-05
"vip:p" 4.065580813410935e-07
"time" 1.137096332393598e-08
"Xopamp:1" 2.475692496802277e-05
"Xopamp:2" -3.530605196347054e-05
"Xopamp:3" -2.759778369409483e-07
"Xopamp:4" -4.303392921110844e-07
"Xopamp:5" 9.999999999963468e-06
"Xopamp:6" 1.255444124585418e-06
"Xopamp.M1:1" 1.067677032147489e-05
"Xopamp.M1:2" -4.303392921110844e-07
"Xopamp.M1:3" -1.034596687341835e-05
"Xopamp.M1:4" 9.953584405436701e-08
"Xopamp.M2:1" 2.464620712035433e-07
"Xopamp.M2:2" -2.759778369409483e-07
"Xopamp.M2:3" -7.096309849097321e-08
"Xopamp.M2:4" 1.004788642279726e-07
"Xopamp.M3:1" -5.837887923899040e-06
"Xopamp.M3:2" -2.282373359853445e-06
"Xopamp.M3:3" 7.693240571499393e-06
"Xopamp.M3:4" 4.270207122538848e-07
"Xopamp.M4:1" -5.433636921089258e-06
"Xopamp.M4:2" -2.556509037716668e-06
"Xopamp.M4:3" 7.694866598293876e-06
"Xopamp.M4:4" 2.952793605105352e-07
"Xopamp.M5:1" 1.021691526362703e-05
"Xopamp.M5:2" -8.374624114819428e-08
"Xopamp.M5:3" -1.003343052674344e-05
"Xopamp.M5:4" -9.973849573535239e-08
"Xopamp.M6:1" -1.372202011544451e-05
"Xopamp.M6:2" 5.075502389978293e-06
"Xopamp.M6:3" 9.418176854067236e-06
"Xopamp.M6:4" -7.716591286021568e-07
"Xopamp.M7:1" 1.508913669987025e-05
"Xopamp.M7:2" 1.060640536049606e-07
"Xopamp.M7:3" -1.517998554732640e-05
"Xopamp.M7:4" -1.521520615872396e-08
"Xopamp.M8:1" 9.912935767889904e-06
"Xopamp.M8:2" 6.474641961679749e-08
"Xopamp.M8:3" -9.963366995519660e-06
"Xopamp.M8:4" -1.431519198697801e-08
"dd" 3.300000000000000e+00
"net7" 5.684875777780909e-01
"net8" 1.650000000000000e+00
"inp" 1.450000000000000e+00
"out" 1.648714010284909e+00
"Xopamp.net1" 2.614262088996797e+00
"Xopamp.net3" 1.006460149471933e+00
"Xopamp.net2" 2.589289283723725e+00
"Xopamp.net8" 2.578914912199855e+00
"vcm:p" 2.759778369405842e-07
"vdd:p" -3.475692496802150e-05
"vip:p" 2.759778369405842e-07
"time" 1.178534997986281e-08
"Xopamp:1" 2.355621119664932e-05
"Xopamp:2" -3.518941340544146e-05
"Xopamp:3" -1.403251448686889e-07
"Xopamp:4" -2.053206296704116e-07
"Xopamp:5" 1.000012723851826e-05
"Xopamp:6" 1.980469782080571e-06
"Xopamp.M1:1" 1.020728427199132e-05
"Xopamp.M1:2" -2.053206296704116e-07
"Xopamp.M1:3" -1.005376499037469e-05
"Xopamp.M1:4" 5.180134805398515e-08
"Xopamp.M2:1" 2.368796151637318e-07
"Xopamp.M2:2" -1.403251448686889e-07
"Xopamp.M2:3" -1.291426340163628e-07
"Xopamp.M2:4" 3.258816372172751e-08
"Xopamp.M3:1" -6.106668657793030e-06
"Xopamp.M3:2" -1.919142584957354e-06
"Xopamp.M3:3" 7.649839303905319e-06
"Xopamp.M3:4" 3.759719388443706e-07
"Xopamp.M4:1" -5.721234857195212e-06
"Xopamp.M4:2" -2.178917247395392e-06
"Xopamp.M4:3" 7.650941948415051e-06
"Xopamp.M4:4" 2.492101561768911e-07
"Xopamp.M5:1" 1.009383389454641e-05
"Xopamp.M5:2" -2.760312418711184e-08
"Xopamp.M5:3" -1.002163119317279e-05
"Xopamp.M5:4" -4.459957718672408e-08
"Xopamp.M6:1" -1.295119172649960e-05
"Xopamp.M6:2" 5.320943877193174e-06
"Xopamp.M6:3" 8.424172468701246e-06
"Xopamp.M6:4" -7.939246193935580e-07
"Xopamp.M7:1" 1.509545227238634e-05
"Xopamp.M7:2" 6.855985901778615e-08
"Xopamp.M7:3" -1.516178946566755e-05
"Xopamp.M7:4" -2.222665726813478e-09
"Xopamp.M8:1" 9.923022023581287e-06
"Xopamp.M8:2" 3.614848010630038e-08
"Xopamp.M8:3" -9.951177958341929e-06
"Xopamp.M8:4" -7.992545345641252e-09
"dd" 3.300000000000000e+00
"net7" 5.685522968315683e-01
"net8" 1.650000000000000e+00
"inp" 1.450000000000000e+00
"out" 1.648444686295427e+00
"Xopamp.net1" 2.610965626330148e+00
"Xopamp.net3" 1.009994370321895e+00
"Xopamp.net2" 2.593913635746842e+00
"Xopamp.net8" 2.578697473794045e+00
"vcm:p" 1.414051176440593e-07
"vdd:p" -3.355621119665141e-05
"vip:p" 1.414051176440593e-07
"time" 1.261412329171648e-08
"Xopamp:1" 2.174700639692000e-05
"Xopamp:2" -3.509306595347717e-05
"Xopamp:3" -1.268506037554859e-08
"Xopamp:4" -4.734485278909825e-08
"Xopamp:5" 1.000013462497682e-05
"Xopamp:6" 3.407720054447064e-06
"Xopamp.M1:1" 9.833671476020994e-06
"Xopamp.M1:2" -4.734485278909825e-08
"Xopamp.M1:3" -9.802433140438994e-06
"Xopamp.M1:4" 1.610651720688785e-08
"Xopamp.M2:1" 2.358401349555466e-07
"Xopamp.M2:2" -1.268506037554859e-08
"Xopamp.M2:3" -2.078242080990613e-07
"Xopamp.M2:4" -1.533086648134146e-08
"Xopamp.M3:1" -6.559677302083933e-06
"Xopamp.M3:2" -1.504985000084558e-06
"Xopamp.M3:3" 7.794412350588779e-06
"Xopamp.M3:4" 2.702499515804294e-07
"Xopamp.M4:1" -6.180616944854304e-06